                         Program Version 4.2.0 -  RELEASE  -
|  1> #
|  2> # MOR04_c2h6 M06-D3/Def2-TZVPPD
|  3> #
|  4> ! m06 d3zero def2-tzvppd def2/jk grid4 nofinalgrid
|  5>
|  6> *xyz 0 1
|  7> C       -0.765850   -0.000004    0.000000
|  8> C        0.765850    0.000004    0.000000
|  9> H       -1.162381   -1.020936   -0.022850
| 10> H       -1.162409    0.530251   -0.872720
| 11> H       -1.162411    0.490675    0.895568
| 12> H        1.162410   -0.530239    0.872727
| 13> H        1.162411   -0.490686   -0.895561
| 14> H        1.162381    1.020936    0.022836
| 15> *
| 16>
| 17> %maxcore 5000
| 18>
| 19> %pal
| 20> nprocs = 24
| 21> end
| 22>
| 23>
| 24>                          ****END OF INPUT****

CARTESIAN COORDINATES (ANGSTROEM)
---------------------------------
  C     -0.765850   -0.000004    0.000000
  C      0.765850    0.000004    0.000000
  H     -1.162381   -1.020936   -0.022850
  H     -1.162409    0.530251   -0.872720
  H     -1.162411    0.490675    0.895568
  H      1.162410   -0.530239    0.872727
  H      1.162411   -0.490686   -0.895561
  H      1.162381    1.020936    0.022836

 Total Charge           Charge          ....    0
 Multiplicity           Mult            ....    1
 Number of Electrons    NEL             ....   18
 Basis Dimension        Dim             ....  176

ORBITAL ENERGIES
----------------

  NO   OCC          E(Eh)            E(eV)
   0   2.0000     -10.222820      -278.1771
   1   2.0000     -10.222568      -278.1702
   2   2.0000      -0.760752       -20.7011
   3   2.0000      -0.623543       -16.9675
   4   2.0000      -0.443366       -12.0646
   5   2.0000      -0.443355       -12.0643
   6   2.0000      -0.378332       -10.2949
   7   2.0000      -0.352470        -9.5912
   8   2.0000      -0.352461        -9.5909
   9   0.0000      -0.017881        -0.4866
  10   0.0000       0.003259         0.0887
  11   0.0000       0.041975         1.1422
  12   0.0000       0.042090         1.1453
  13   0.0000       0.063487         1.7276

MULLIKEN ATOMIC CHARGES
-----------------------
   0 C :   -1.379204
   1 C :   -1.379212
   2 H :    0.458142
   3 H :    0.459941
   4 H :    0.461125
   5 H :    0.459943
   6 H :    0.461125
   7 H :    0.458140
Sum of atomic charges:    0.0000000

LOEWDIN ATOMIC CHARGES
----------------------
   0 C :    0.069485
   1 C :    0.069485
   2 H :   -0.023170
   3 H :   -0.023163
   4 H :   -0.023151
   5 H :   -0.023163
   6 H :   -0.023152
   7 H :   -0.023170

  Mayer bond orders larger than 0.100000
B(  0-C ,  1-C ) :   0.2454 B(  0-C ,  2-H ) :   0.8537 B(  0-C ,  3-H ) :   0.8520
B(  0-C ,  4-H ) :   0.8510 B(  1-C ,  5-H ) :   0.8520 B(  1-C ,  6-H ) :   0.8510
B(  1-C ,  7-H ) :   0.8537

Dispersion correction           -0.000118022
FINAL SINGLE POINT ENERGY       -79.786844654439

DIPOLE MOMENT
-------------
                                X             Y             Z
Electronic contribution:     -0.00000      -0.00000      -0.00000
Nuclear contribution   :      0.00000       0.00000      -0.00000
                        -----------------------------------------
Total Dipole Moment    :      0.00000       0.00000      -0.00000
                        -----------------------------------------
Magnitude (a.u.)       :      0.00000
Magnitude (Debye)      :      0.00000

Rotational constants in cm-1:     2.672873     0.663298     0.663297
Rotational constants in MHz : 80130.723455 19885.185427 19885.132514

                             ****ORCA TERMINATED NORMALLY****
TOTAL RUN TIME: 0 days 0 hours 0 minutes 4 seconds 721 msec
