                         Program Version 4.2.0 -  RELEASE  -
|  1> #
|  2> # MOR09_ed07 M06-D3/Def2-TZVPPD
|  3> #
|  4> ! m06 d3zero def2-tzvppd def2/jk grid4 nofinalgrid
|  5>
|  6> *xyz 0 1
|  7> W        0.102077    0.091078   -0.092267
|  8> C        0.117393   -1.847063   -0.698289
|  9> O        0.106421   -2.944423   -1.101491
| 10> C        0.053830    0.623127   -1.953542
| 11> O        0.062184    0.954188   -3.084324
| 12> C       -0.079789    2.065684    0.368043
| 13> O       -0.241835    3.206144    0.563164
| 14> P       -2.374272   -0.093775    0.152024
| 15> C       -2.924700   -0.636961    1.860300
| 16> H       -4.020662   -0.654132    1.869520
| 17> C       -3.301587    1.526034   -0.042070
| 18> H       -2.720709    2.174283    0.626552
| 19> C       -3.158465   -1.412689   -0.926528
| 20> H       -2.602719   -2.298136   -0.589541
| 21> C        3.533012   -1.160075   -0.926747
| 22> P        2.541683   -0.047968    0.198665
| 23> H        3.436930   -0.493420    2.480788
| 24> H        3.117150   -2.146572   -0.686664
| 25> C        3.597094    1.476716    0.423185
| 26> H        4.630625    1.133957    0.560412
| 27> C       -3.162167    2.103519   -1.458162
| 28> H       -3.455722    3.159421   -1.453162
| 29> H       -3.815975    1.580772   -2.162650
| 30> H       -2.136423    2.033109   -1.825887
| 31> C       -4.764402    1.570333    0.422322
| 32> H       -5.415801    0.983387   -0.229568
| 33> H       -5.116762    2.608723    0.390691
| 34> H       -4.893747    1.210688    1.447022
| 35> C       -4.655036   -1.682881   -0.716884
| 36> H       -4.925909   -1.790522    0.337405
| 37> H       -4.929224   -2.613829   -1.227923
| 38> H       -5.265149   -0.883893   -1.147063
| 39> C       -2.846467   -1.236186   -2.419424
| 40> H       -3.119249   -2.151958   -2.956758
| 41> H       -1.787229   -1.039228   -2.589757
| 42> H       -3.419310   -0.412085   -2.852792
| 43> C       -2.418211   -2.050160    2.179041
| 44> H       -2.879973   -2.804800    1.536232
| 45> H       -2.649558   -2.306479    3.219697
| 46> H       -1.332968   -2.120913    2.045449
| 47> C       -2.447309    0.375917    2.910548
| 48> H       -1.357998    0.484909    2.881372
| 49> H       -2.729985    0.039964    3.915237
| 50> H       -2.881675    1.366975    2.750689
| 51> C        5.039293   -1.175311   -0.637409
| 52> H        5.257150   -1.324613    0.425881
| 53> H        5.510398   -0.237807   -0.951034
| 54> H        5.518847   -1.987312   -1.196567
| 55> C        3.236493   -0.904929   -2.411567
| 56> H        3.640990    0.053418   -2.749243
| 57> C        1.267139   -0.464900    2.531536
| 58> H        2.161630   -0.902783   -2.603826
| 59> H        3.697388   -1.694627   -3.016368
| 60> C        2.697601   -2.411104    1.824913
| 61> H        0.411078   -0.840608    1.910182
| 62> H        1.101298   -0.955345    3.499474
| 63> H        1.182937    0.613220    2.672323
| 64> C        2.601288   -0.882352    1.885247
| 65> H        2.586441   -2.826896    2.833616
| 66> H        3.659680   -2.747270    1.429848
| 67> H        1.903309   -2.831808    1.199333
| 68> C        3.181998    2.276906    1.664687
| 69> H        2.135318    2.587016    1.600131
| 70> H        3.793597    3.184158    1.733044
| 71> H        3.324478    1.710719    2.590306
| 72> C        3.508784    2.354763   -0.833649
| 73> H        2.465553    2.610163   -1.046808
| 74> H        3.919372    1.854332   -1.714343
| 75> H        4.068793    3.284623   -0.679973
| 76> *
| 77>
| 78> %maxcore 5000
| 79>
| 80> %pal
| 81> nprocs = 24
| 82> end
| 83>
| 84>
| 85>                          ****END OF INPUT****

CARTESIAN COORDINATES (ANGSTROEM)
---------------------------------
  W      0.102077    0.091078   -0.092267
  C      0.117393   -1.847063   -0.698289
  O      0.106421   -2.944423   -1.101491
  C      0.053830    0.623127   -1.953542
  O      0.062184    0.954188   -3.084324
  C     -0.079789    2.065684    0.368043
  O     -0.241835    3.206144    0.563164
  P     -2.374272   -0.093775    0.152024
  C     -2.924700   -0.636961    1.860300
  H     -4.020662   -0.654132    1.869520
  C     -3.301587    1.526034   -0.042070
  H     -2.720709    2.174283    0.626552
  C     -3.158465   -1.412689   -0.926528
  H     -2.602719   -2.298136   -0.589541
  C      3.533012   -1.160075   -0.926747
  P      2.541683   -0.047968    0.198665
  H      3.436930   -0.493420    2.480788
  H      3.117150   -2.146572   -0.686664
  C      3.597094    1.476716    0.423185
  H      4.630625    1.133957    0.560412
  C     -3.162167    2.103519   -1.458162
  H     -3.455722    3.159421   -1.453162
  H     -3.815975    1.580772   -2.162650
  H     -2.136423    2.033109   -1.825887
  C     -4.764402    1.570333    0.422322
  H     -5.415801    0.983387   -0.229568
  H     -5.116762    2.608723    0.390691
  H     -4.893747    1.210688    1.447022
  C     -4.655036   -1.682881   -0.716884
  H     -4.925909   -1.790522    0.337405
  H     -4.929224   -2.613829   -1.227923
  H     -5.265149   -0.883893   -1.147063
  C     -2.846467   -1.236186   -2.419424
  H     -3.119249   -2.151958   -2.956758
  H     -1.787229   -1.039228   -2.589757
  H     -3.419310   -0.412085   -2.852792
  C     -2.418211   -2.050160    2.179041
  H     -2.879973   -2.804800    1.536232
  H     -2.649558   -2.306479    3.219697
  H     -1.332968   -2.120913    2.045449
  C     -2.447309    0.375917    2.910548
  H     -1.357998    0.484909    2.881372
  H     -2.729985    0.039964    3.915237
  H     -2.881675    1.366975    2.750689
  C      5.039293   -1.175311   -0.637409
  H      5.257150   -1.324613    0.425881
  H      5.510398   -0.237807   -0.951034
  H      5.518847   -1.987312   -1.196567
  C      3.236493   -0.904929   -2.411567
  H      3.640990    0.053418   -2.749243
  C      1.267139   -0.464900    2.531536
  H      2.161630   -0.902783   -2.603826
  H      3.697388   -1.694627   -3.016368
  C      2.697601   -2.411104    1.824913
  H      0.411078   -0.840608    1.910182
  H      1.101298   -0.955345    3.499474
  H      1.182937    0.613220    2.672323
  C      2.601288   -0.882352    1.885247
  H      2.586441   -2.826896    2.833616
  H      3.659680   -2.747270    1.429848
  H      1.903309   -2.831808    1.199333
  C      3.181998    2.276906    1.664687
  H      2.135318    2.587016    1.600131
  H      3.793597    3.184158    1.733044
  H      3.324478    1.710719    2.590306
  C      3.508784    2.354763   -0.833649
  H      2.465553    2.610163   -1.046808
  H      3.919372    1.854332   -1.714343
  H      4.068793    3.284623   -0.679973

 Total Charge           Charge          ....    0
 Multiplicity           Mult            ....    1
 Number of Electrons    NEL             ....  236
 Basis Dimension        Dim             .... 1766

ORBITAL ENERGIES
----------------

  NO   OCC          E(Eh)            E(eV)
   0   2.0000     -77.235114     -2101.6743
   1   2.0000     -77.233156     -2101.6210
   2   2.0000     -19.250138      -523.8229
   3   2.0000     -19.249082      -523.7942
   4   2.0000     -19.213513      -522.8263
   5   2.0000     -10.315515      -280.6994
   6   2.0000     -10.315402      -280.6964
   7   2.0000     -10.290997      -280.0323
   8   2.0000     -10.265092      -279.3274
   9   2.0000     -10.264715      -279.3171
  10   2.0000     -10.254500      -279.0391
  11   2.0000     -10.254013      -279.0259
  12   2.0000     -10.252984      -278.9979
  13   2.0000     -10.248761      -278.8830
  14   2.0000     -10.248427      -278.8739
  15   2.0000     -10.243234      -278.7326
  16   2.0000     -10.239302      -278.6256
  17   2.0000     -10.237363      -278.5728
  18   2.0000     -10.236814      -278.5579
  19   2.0000     -10.235010      -278.5088
  20   2.0000     -10.232542      -278.4416
  21   2.0000     -10.231292      -278.4076
  22   2.0000     -10.229860      -278.3687
  23   2.0000     -10.225647      -278.2540
  24   2.0000     -10.222160      -278.1591
  25   2.0000     -10.219812      -278.0952
  26   2.0000      -6.661942      -181.2806
  27   2.0000      -6.658798      -181.1951
  28   2.0000      -4.782900      -130.1493
  29   2.0000      -4.782237      -130.1313
  30   2.0000      -4.779482      -130.0563
  31   2.0000      -4.779439      -130.0552
  32   2.0000      -4.779401      -130.0541
  33   2.0000      -4.776482      -129.9747
  34   2.0000      -2.873454       -78.1907
  35   2.0000      -1.553289       -42.2671
  36   2.0000      -1.550226       -42.1838
  37   2.0000      -1.541967       -41.9590
  38   2.0000      -1.109127       -30.1809
  39   2.0000      -1.107897       -30.1474
  40   2.0000      -1.072759       -29.1913
  41   2.0000      -0.838577       -22.8188
  42   2.0000      -0.828411       -22.5422
  43   2.0000      -0.809354       -22.0236
  44   2.0000      -0.799254       -21.7488
  45   2.0000      -0.797516       -21.7015
  46   2.0000      -0.793291       -21.5865
  47   2.0000      -0.720869       -19.6158
  48   2.0000      -0.706679       -19.2297
  49   2.0000      -0.703035       -19.1306
  50   2.0000      -0.700357       -19.0577
  51   2.0000      -0.700139       -19.0518
  52   2.0000      -0.690877       -18.7997
  53   2.0000      -0.670768       -18.2525
  54   2.0000      -0.665080       -18.0977
  55   2.0000      -0.610114       -16.6020
  56   2.0000      -0.599663       -16.3177
  57   2.0000      -0.597346       -16.2546
  58   2.0000      -0.596602       -16.2344
  59   2.0000      -0.567598       -15.4451
  60   2.0000      -0.542940       -14.7741
  61   2.0000      -0.542816       -14.7708
  62   2.0000      -0.533456       -14.5161
  63   2.0000      -0.523442       -14.2436
  64   2.0000      -0.500181       -13.6106
  65   2.0000      -0.490132       -13.3372
  66   2.0000      -0.486695       -13.2437
  67   2.0000      -0.481020       -13.0892
  68   2.0000      -0.479531       -13.0487
  69   2.0000      -0.465616       -12.6700
  70   2.0000      -0.464135       -12.6297
  71   2.0000      -0.460254       -12.5242
  72   2.0000      -0.452223       -12.3056
  73   2.0000      -0.449257       -12.2249
  74   2.0000      -0.447370       -12.1735
  75   2.0000      -0.445129       -12.1126
  76   2.0000      -0.441978       -12.0268
  77   2.0000      -0.437976       -11.9179
  78   2.0000      -0.437828       -11.9139
  79   2.0000      -0.435482       -11.8501
  80   2.0000      -0.427562       -11.6345
  81   2.0000      -0.424936       -11.5631
  82   2.0000      -0.423130       -11.5139
  83   2.0000      -0.421271       -11.4634
  84   2.0000      -0.420572       -11.4444
  85   2.0000      -0.416298       -11.3280
  86   2.0000      -0.416135       -11.3236
  87   2.0000      -0.411702       -11.2030
  88   2.0000      -0.410312       -11.1652
  89   2.0000      -0.407819       -11.0973
  90   2.0000      -0.405447       -11.0328
  91   2.0000      -0.404891       -11.0176
  92   2.0000      -0.400901       -10.9091
  93   2.0000      -0.398637       -10.8475
  94   2.0000      -0.397753       -10.8234
  95   2.0000      -0.382173       -10.3995
  96   2.0000      -0.381024       -10.3682
  97   2.0000      -0.379462       -10.3257
  98   2.0000      -0.374780       -10.1983
  99   2.0000      -0.369479       -10.0540
 100   2.0000      -0.368521       -10.0280
 101   2.0000      -0.367954       -10.0125
 102   2.0000      -0.362852        -9.8737
 103   2.0000      -0.359593        -9.7850
 104   2.0000      -0.358275        -9.7491
 105   2.0000      -0.354762        -9.6536
 106   2.0000      -0.354295        -9.6409
 107   2.0000      -0.352950        -9.6043
 108   2.0000      -0.351678        -9.5697
 109   2.0000      -0.318709        -8.6725
 110   2.0000      -0.312234        -8.4963
 111   2.0000      -0.310762        -8.4563
 112   2.0000      -0.308822        -8.4035
 113   2.0000      -0.300212        -8.1692
 114   2.0000      -0.259566        -7.0632
 115   2.0000      -0.202567        -5.5121
 116   2.0000      -0.193533        -5.2663
 117   2.0000      -0.181456        -4.9377
 118   0.0000      -0.056163        -1.5283
 119   0.0000      -0.034659        -0.9431
 120   0.0000      -0.029316        -0.7977
 121   0.0000      -0.025549        -0.6952
 122   0.0000      -0.024006        -0.6532

MULLIKEN ATOMIC CHARGES
-----------------------
   0 W :    2.264203
   1 C :   -0.297877
   2 O :   -0.599835
   3 C :    0.230855
   4 O :   -0.644718
   5 C :   -0.632364
   6 O :   -0.602906
   7 P :   -0.158925
   8 C :    1.308033
   9 H :    1.150280
  10 C :    1.383534
  11 H :    0.890358
  12 C :    1.513701
  13 H :    0.901777
  14 C :    1.531552
  15 P :   -0.443881
  16 H :    1.654222
  17 H :    1.004367
  18 C :    0.997633
  19 H :    1.256841
  20 C :   -3.033698
  21 H :    0.909403
  22 H :    0.475827
  23 H :    0.445928
  24 C :   -2.979414
  25 H :    0.465821
  26 H :    0.865056
  27 H :    0.507965
  28 C :   -3.126087
  29 H :    0.538734
  30 H :    0.876699
  31 H :    0.541806
  32 C :   -2.838838
  33 H :    0.930936
  34 H :    0.371302
  35 H :    0.443553
  36 C :   -3.072140
  37 H :    0.490668
  38 H :    0.822655
  39 H :    0.575471
  40 C :   -3.178340
  41 H :    0.605299
  42 H :    0.827915
  43 H :    0.484721
  44 C :   -3.085743
  45 H :    0.567657
  46 H :    0.550379
  47 H :    0.893363
  48 C :   -2.547507
  49 H :    0.496016
  50 C :   -2.533177
  51 H :    0.317333
  52 H :    0.842518
  53 C :   -3.061431
  54 H :    0.042686
  55 H :    0.986982
  56 H :    0.379102
  57 C :    0.287990
  58 H :    0.764576
  59 H :    0.604424
  60 H :    0.614515
  61 C :   -2.607374
  62 H :    0.473967
  63 H :    0.794280
  64 H :    0.449021
  65 C :   -2.595423
  66 H :    0.403503
  67 H :    0.445713
  68 H :    0.858542
Sum of atomic charges:   -0.0000000

LOEWDIN ATOMIC CHARGES
----------------------
   0 W :    0.322060
   1 C :   -0.269128
   2 O :    0.037649
   3 C :   -0.371744
   4 O :    0.004594
   5 C :   -0.261511
   6 O :    0.035626
   7 P :    1.056791
   8 C :   -0.379309
   9 H :   -0.026088
  10 C :   -0.361709
  11 H :   -0.033779
  12 C :   -0.360635
  13 H :   -0.029642
  14 C :   -0.366134
  15 P :    1.051493
  16 H :   -0.001967
  17 H :   -0.022551
  18 C :   -0.364158
  19 H :   -0.011165
  20 C :    0.119828
  21 H :    0.000564
  22 H :   -0.017337
  23 H :   -0.036818
  24 C :    0.121184
  25 H :   -0.024066
  26 H :   -0.000558
  27 H :   -0.024995
  28 C :    0.119249
  29 H :   -0.022232
  30 H :   -0.001416
  31 H :   -0.020463
  32 C :    0.119099
  33 H :    0.001191
  34 H :   -0.044863
  35 H :   -0.018393
  36 C :    0.112059
  37 H :   -0.016194
  38 H :   -0.002905
  39 H :   -0.032656
  40 C :    0.112286
  41 H :   -0.034766
  42 H :   -0.002447
  43 H :   -0.017152
  44 C :    0.107925
  45 H :   -0.016645
  46 H :   -0.011963
  47 H :   -0.001547
  48 C :    0.120021
  49 H :   -0.019836
  50 C :    0.063727
  51 H :   -0.037298
  52 H :   -0.000737
  53 C :    0.112646
  54 H :   -0.076760
  55 H :    0.013698
  56 H :   -0.030729
  57 C :   -0.346437
  58 H :   -0.000885
  59 H :   -0.017778
  60 H :   -0.018814
  61 C :    0.109229
  62 H :   -0.034943
  63 H :   -0.000598
  64 H :   -0.020721
  65 C :    0.119078
  66 H :   -0.015521
  67 H :   -0.028714
  68 H :   -0.003291

  Mayer bond orders larger than 0.100000
B(  0-W ,  1-C ) :  -1.6415 B(  0-W ,  2-O ) :  -0.2229 B(  0-W ,  3-C ) :   0.3057
B(  0-W ,  4-O ) :  -0.4024 B(  0-W ,  5-C ) :  -3.2736 B(  0-W ,  6-O ) :  -0.2456
B(  0-W ,  7-P ) :  -0.4699 B(  0-W , 10-C ) :   0.3909 B(  0-W , 12-C ) :   0.3985
B(  0-W , 13-H ) :   0.1116 B(  0-W , 14-C ) :   0.2890 B(  0-W , 15-P ) :   0.4200
B(  0-W , 16-H ) :   0.1274 B(  0-W , 17-H ) :   0.1518 B(  0-W , 18-C ) :   0.4930
B(  0-W , 19-H ) :  -0.1347 B(  0-W , 36-C ) :   0.1761 B(  0-W , 50-C ) :  -0.6452
B(  0-W , 53-C ) :   0.1130 B(  0-W , 54-H ) :   0.4104 B(  1-C ,  2-O ) :   1.7950
B(  1-C ,  3-C ) :   0.2948 B(  1-C ,  4-O ) :   0.1076 B(  1-C ,  5-C ) :   1.0470
B(  1-C ,  7-P ) :   0.8552 B(  1-C , 12-C ) :  -0.2432 B(  1-C , 14-C ) :  -0.1874
B(  1-C , 15-P ) :   0.2207 B(  1-C , 24-C ) :  -0.1060 B(  1-C , 54-H ) :  -0.1071
B(  3-C ,  4-O ) :   1.9571 B(  3-C ,  5-C ) :   0.5627 B(  3-C ,  7-P ) :   0.3786
B(  3-C , 10-C ) :  -0.1146 B(  3-C , 12-C ) :  -0.1318 B(  3-C , 14-C ) :  -0.1089
B(  3-C , 15-P ) :   0.3228 B(  3-C , 18-C ) :  -0.1106 B(  3-C , 50-C ) :   0.2534
B(  3-C , 54-H ) :  -0.1089 B(  5-C ,  6-O ) :   1.7930 B(  5-C ,  7-P ) :   0.5706
B(  5-C , 10-C ) :  -0.1038 B(  5-C , 14-C ) :  -0.1119 B(  5-C , 15-P ) :   0.5943
B(  5-C , 50-C ) :   0.2961 B(  5-C , 54-H ) :  -0.3082 B(  7-P ,  8-C ) :   1.1032
B(  7-P ,  9-H ) :  -0.2174 B(  7-P , 10-C ) :   0.7733 B(  7-P , 12-C ) :   0.7526
B(  7-P , 15-P ) :  -0.1762 B(  7-P , 20-C ) :   0.1984 B(  7-P , 24-C ) :   0.5682
B(  7-P , 28-C ) :   0.5342 B(  7-P , 32-C ) :   0.3248 B(  7-P , 39-H ) :  -0.1409
B(  7-P , 40-C ) :   0.3485 B(  7-P , 41-H ) :  -0.1165 B(  7-P , 50-C ) :   0.1513
B(  7-P , 54-H ) :  -0.1185 B(  8-C , 10-C ) :   0.2205 B(  8-C , 12-C ) :   0.2843
B(  8-C , 28-C ) :   0.1242 B(  8-C , 36-C ) :  -1.2521 B(  8-C , 37-H ) :  -0.1718
B(  8-C , 39-H ) :  -0.2816 B(  8-C , 40-C ) :  -1.4650 B(  8-C , 41-H ) :  -0.2418
B(  8-C , 43-H ) :  -0.2050 B(  9-H , 10-C ) :   0.1014 B(  9-H , 36-C ) :  -0.2233
B(  9-H , 40-C ) :  -0.3119 B( 10-C , 11-H ) :   0.4927 B( 10-C , 12-C ) :   0.5149
B( 10-C , 20-C ) :  -1.1287 B( 10-C , 22-H ) :  -0.3209 B( 10-C , 23-H ) :  -0.3277
B( 10-C , 24-C ) :  -1.1252 B( 10-C , 25-H ) :  -0.3860 B( 10-C , 27-H ) :  -0.2524
B( 10-C , 40-C ) :   0.1174 B( 11-H , 20-C ) :  -0.4000 B( 11-H , 24-C ) :  -0.2481
B( 12-C , 13-H ) :   0.3574 B( 12-C , 28-C ) :  -1.2892 B( 12-C , 29-H ) :  -0.2536
B( 12-C , 31-H ) :  -0.3151 B( 12-C , 32-C ) :  -1.1347 B( 12-C , 34-H ) :  -0.3566
B( 12-C , 35-H ) :  -0.3565 B( 12-C , 36-C ) :   0.2967 B( 13-H , 28-C ) :  -0.3310
B( 13-H , 32-C ) :  -0.1718 B( 14-C , 15-P ) :   0.1516 B( 14-C , 17-H ) :   0.1952
B( 14-C , 18-C ) :   0.3620 B( 14-C , 19-H ) :   0.1218 B( 14-C , 44-C ) :  -1.3495
B( 14-C , 45-H ) :  -0.2250 B( 14-C , 46-H ) :  -0.3065 B( 14-C , 48-C ) :  -0.7603
B( 14-C , 49-H ) :  -0.3275 B( 14-C , 51-H ) :  -0.2449 B( 14-C , 57-C ) :   0.2611
B( 15-P , 16-H ) :  -0.5289 B( 15-P , 18-C ) :   0.4824 B( 15-P , 19-H ) :  -0.2938
B( 15-P , 44-C ) :   0.8285 B( 15-P , 48-C ) :   0.2857 B( 15-P , 50-C ) :   0.7864
B( 15-P , 53-C ) :   0.2931 B( 15-P , 54-H ) :  -0.1467 B( 15-P , 57-C ) :   0.8324
B( 15-P , 61-C ) :   0.3946 B( 15-P , 65-C ) :   0.4682 B( 16-H , 18-C ) :   0.2666
B( 16-H , 50-C ) :  -0.4340 B( 16-H , 56-H ) :  -0.1215 B( 16-H , 57-C ) :  -1.0786
B( 16-H , 61-C ) :  -0.2203 B( 17-H , 18-C ) :  -0.1256 B( 17-H , 44-C ) :  -0.2723
B( 18-C , 19-H ) :  -0.2585 B( 18-C , 50-C ) :   0.1532 B( 18-C , 57-C ) :   0.1200
B( 18-C , 61-C ) :  -0.8376 B( 18-C , 62-H ) :  -0.3419 B( 18-C , 65-C ) :  -0.5778
B( 18-C , 66-H ) :  -0.3230 B( 18-C , 67-H ) :  -0.1441 B( 19-H , 61-C ) :  -0.1059
B( 19-H , 65-C ) :  -0.1975 B( 20-C , 21-H ) :   0.1239 B( 20-C , 22-H ) :   1.1903
B( 20-C , 23-H ) :   1.1695 B( 20-C , 24-C ) :  -0.2551 B( 22-H , 23-H ) :   0.2588
B( 24-C , 25-H ) :   1.2047 B( 24-C , 26-H ) :   0.2266 B( 24-C , 27-H ) :   0.9989
B( 25-H , 27-H ) :   0.2799 B( 28-C , 29-H ) :   0.9655 B( 28-C , 30-H ) :   0.2125
B( 28-C , 31-H ) :   1.1335 B( 28-C , 32-C ) :  -0.3004 B( 29-H , 31-H ) :   0.2053
B( 32-C , 34-H ) :   1.3226 B( 32-C , 35-H ) :   1.2251 B( 34-H , 35-H ) :   0.3331
B( 36-C , 37-H ) :   1.1004 B( 36-C , 38-H ) :   0.4288 B( 36-C , 39-H ) :   0.9420
B( 36-C , 50-C ) :   0.2230 B( 37-H , 38-H ) :   0.1149 B( 37-H , 39-H ) :   0.1717
B( 40-C , 41-H ) :   0.8496 B( 40-C , 42-H ) :   0.4538 B( 40-C , 43-H ) :   1.0802
B( 41-H , 43-H ) :   0.2466 B( 44-C , 45-H ) :   0.8596 B( 44-C , 46-H ) :   1.1528
B( 44-C , 47-H ) :   0.1966 B( 44-C , 48-C ) :  -0.3136 B( 44-C , 57-C ) :  -0.1574
B( 45-H , 46-H ) :   0.2693 B( 48-C , 49-H ) :   1.2022 B( 48-C , 51-H ) :   1.2331
B( 48-C , 52-H ) :   0.2690 B( 49-H , 51-H ) :   0.2957 B( 50-C , 53-C ) :   0.1863
B( 50-C , 54-H ) :   0.6715 B( 50-C , 56-H ) :   1.2927 B( 50-C , 57-C ) :   0.6863
B( 50-C , 58-H ) :  -0.1310 B( 53-C , 57-C ) :  -0.9410 B( 53-C , 58-H ) :   0.5147
B( 53-C , 59-H ) :   0.8944 B( 53-C , 60-H ) :   0.8701 B( 57-C , 60-H ) :  -0.2891
B( 57-C , 61-C ) :   0.1580 B( 59-H , 60-H ) :   0.1758 B( 61-C , 62-H ) :   1.0996
B( 61-C , 63-H ) :   0.4199 B( 61-C , 64-H ) :   1.0246 B( 61-C , 65-C ) :  -0.2462
B( 62-H , 64-H ) :   0.2170 B( 63-H , 64-H ) :   0.1002 B( 65-C , 66-H ) :   1.2571
B( 65-C , 67-H ) :   0.9907 B( 65-C , 68-H ) :   0.2504 B( 66-H , 67-H ) :   0.2773

Dispersion correction           -0.020733634
FINAL SINGLE POINT ENERGY     -1800.791474197376

DIPOLE MOMENT
-------------
                                X             Y             Z
Electronic contribution:     17.79056      16.09972     -20.05184
Nuclear contribution   :    -17.42159     -16.73751      21.91193
                        -----------------------------------------
Total Dipole Moment    :      0.36897      -0.63778       1.86009
                        -----------------------------------------
Magnitude (a.u.)       :      2.00071
Magnitude (Debye)      :      5.08540

Rotational constants in cm-1:     0.007992     0.003859     0.003786
Rotational constants in MHz :   239.602072   115.683770   113.510152

                             ****ORCA TERMINATED NORMALLY****
TOTAL RUN TIME: 0 days 1 hours 30 minutes 23 seconds 773 msec
