                         Program Version 4.2.0 -  RELEASE  -
|  1> #
|  2> # MOR01_accl M06-D3/Def2-TZVPPD
|  3> #
|  4> ! m06 d3zero def2-tzvppd def2/jk grid4 nofinalgrid
|  5>
|  6> *xyz 0 1
|  7> C        1.306659   -1.017500   -0.000028
|  8> C        0.488515    0.240833   -0.000079
|  9> H        2.367301   -0.760167   -0.001300
| 10> H        1.052624   -1.613812   -0.881062
| 11> H        1.054555   -1.612076    0.882774
| 12> O        0.865971    1.367720    0.000018
| 13> Cl      -1.304312   -0.135041    0.000005
| 14> *
| 15>
| 16> %maxcore 5000
| 17>
| 18> %pal
| 19> nprocs = 24
| 20> end
| 21>
| 22>
| 23>                          ****END OF INPUT****

CARTESIAN COORDINATES (ANGSTROEM)
---------------------------------
  C      1.306659   -1.017500   -0.000028
  C      0.488515    0.240833   -0.000079
  H      2.367301   -0.760167   -0.001300
  H      1.052624   -1.613812   -0.881062
  H      1.054555   -1.612076    0.882774
  O      0.865971    1.367720    0.000018
  Cl    -1.304312   -0.135041    0.000005

 Total Charge           Charge          ....    0
 Multiplicity           Mult            ....    1
 Number of Electrons    NEL             ....   40
 Basis Dimension        Dim             ....  216

ORBITAL ENERGIES
----------------

  NO   OCC          E(Eh)            E(eV)
   0   2.0000    -101.718550     -2767.9025
   1   2.0000     -19.249752      -523.8124
   2   2.0000     -10.402338      -283.0620
   3   2.0000     -10.275717      -279.6165
   4   2.0000      -9.594258      -261.0730
   5   2.0000      -7.302174      -198.7023
   6   2.0000      -7.295402      -198.5180
   7   2.0000      -7.294343      -198.4892
   8   2.0000      -1.120129       -30.4803
   9   2.0000      -0.869953       -23.6726
  10   2.0000      -0.783789       -21.3280
  11   2.0000      -0.580830       -15.8052
  12   2.0000      -0.512044       -13.9334
  13   2.0000      -0.495984       -13.4964
  14   2.0000      -0.495689       -13.4884
  15   2.0000      -0.436903       -11.8887
  16   2.0000      -0.421765       -11.4768
  17   2.0000      -0.340123        -9.2552
  18   2.0000      -0.334906        -9.1133
  19   2.0000      -0.318898        -8.6777
  20   0.0000      -0.042866        -1.1664
  21   0.0000      -0.032047        -0.8720
  22   0.0000      -0.008268        -0.2250
  23   0.0000      -0.001050        -0.0286
  24   0.0000       0.004538         0.1235

MULLIKEN ATOMIC CHARGES
-----------------------
   0 C :   -1.563359
   1 C :    1.093011
   2 H :    0.494398
   3 H :    0.480712
   4 H :    0.480301
   5 O :   -0.627910
   6 Cl:   -0.357153
Sum of atomic charges:   -0.0000000

LOEWDIN ATOMIC CHARGES
----------------------
   0 C :    0.125264
   1 C :   -0.731518
   2 H :    0.001463
   3 H :   -0.001531
   4 H :   -0.001441
   5 O :    0.054620
   6 Cl:    0.553143

  Mayer bond orders larger than 0.100000
B(  0-C ,  1-C ) :   0.5132 B(  0-C ,  2-H ) :   0.7428 B(  0-C ,  3-H ) :   0.8530
B(  0-C ,  4-H ) :   0.8532 B(  0-C ,  6-Cl) :   0.1819 B(  1-C ,  5-O ) :   1.6542
B(  1-C ,  6-Cl) :   0.5742 B(  5-O ,  6-Cl) :   0.1385

Dispersion correction           -0.000232459
FINAL SINGLE POINT ENERGY      -613.418231492322

DIPOLE MOMENT
-------------
                                X             Y             Z
Electronic contribution:     -5.51209       2.65622      -0.00033
Nuclear contribution   :      6.08095      -3.60915       0.00039
                        -----------------------------------------
Total Dipole Moment    :      0.56886      -0.95293       0.00006
                        -----------------------------------------
Magnitude (a.u.)       :      1.10981
Magnitude (Debye)      :      2.82092

Rotational constants in cm-1:     0.334975     0.160198     0.110601
Rotational constants in MHz : 10042.310181  4802.622935  3315.727154

                             ****ORCA TERMINATED NORMALLY****
TOTAL RUN TIME: 0 days 0 hours 0 minutes 7 seconds 549 msec
