                         Program Version 4.2.0 -  RELEASE  -
|  1> #
|  2> # MOR08_ed05 M06-D3/Def2-TZVPPD
|  3> #
|  4> ! m06 d3zero def2-tzvppd def2/jk grid4 nofinalgrid
|  5>
|  6> *xyz 0 1
|  7> Mn      -0.000015    0.000034   -0.156112
|  8> O       -2.966556    0.069032   -0.568565
|  9> C       -1.835048    0.042703   -0.376221
| 10> C        0.000106   -0.000266    1.691489
| 11> O        0.000196   -0.000501    2.842648
| 12> C        1.835004   -0.042558   -0.376374
| 13> O        2.966501   -0.068795   -0.568793
| 14> C        0.042608    1.834986   -0.376689
| 15> O        0.068875    2.966413   -0.569532
| 16> C       -0.042655   -1.834886   -0.377054
| 17> O       -0.068962   -2.966280   -0.570073
| 18> H       -0.000145    0.000318   -1.733571
| 19> *
| 20>
| 21> %maxcore 5000
| 22>
| 23> %pal
| 24> nprocs = 24
| 25> end
| 26>
| 27>
| 28>                          ****END OF INPUT****

CARTESIAN COORDINATES (ANGSTROEM)
---------------------------------
  Mn    -0.000015    0.000034   -0.156112
  O     -2.966556    0.069032   -0.568565
  C     -1.835048    0.042703   -0.376221
  C      0.000106   -0.000266    1.691489
  O      0.000196   -0.000501    2.842648
  C      1.835004   -0.042558   -0.376374
  O      2.966501   -0.068795   -0.568793
  C      0.042608    1.834986   -0.376689
  O      0.068875    2.966413   -0.569532
  C     -0.042655   -1.834886   -0.377054
  O     -0.068962   -2.966280   -0.570073
  H     -0.000145    0.000318   -1.733571

 Total Charge           Charge          ....    0
 Multiplicity           Mult            ....    1
 Number of Electrons    NEL             ....   96
 Basis Dimension        Dim             ....  469

ORBITAL ENERGIES
----------------

  NO   OCC          E(Eh)            E(eV)
   0   2.0000    -235.761232     -6415.3893
   1   2.0000     -27.576402      -750.3920
   2   2.0000     -23.578323      -641.5988
   3   2.0000     -23.578321      -641.5987
   4   2.0000     -23.572333      -641.4358
   5   2.0000     -19.309672      -525.4429
   6   2.0000     -19.309670      -525.4428
   7   2.0000     -19.309660      -525.4426
   8   2.0000     -19.309656      -525.4425
   9   2.0000     -19.301153      -525.2111
  10   2.0000     -10.381723      -282.5011
  11   2.0000     -10.381716      -282.5009
  12   2.0000     -10.381704      -282.5005
  13   2.0000     -10.381698      -282.5004
  14   2.0000     -10.372392      -282.2471
  15   2.0000      -3.259510       -88.6958
  16   2.0000      -2.098297       -57.0976
  17   2.0000      -2.098294       -57.0975
  18   2.0000      -2.086947       -56.7887
  19   2.0000      -1.175422       -31.9849
  20   2.0000      -1.174721       -31.9658
  21   2.0000      -1.174711       -31.9655
  22   2.0000      -1.174161       -31.9505
  23   2.0000      -1.165293       -31.7092
  24   2.0000      -0.638571       -17.3764
  25   2.0000      -0.597567       -16.2606
  26   2.0000      -0.597559       -16.2604
  27   2.0000      -0.593090       -16.1388
  28   2.0000      -0.591284       -16.0897
  29   2.0000      -0.528316       -14.3762
  30   2.0000      -0.515632       -14.0311
  31   2.0000      -0.504313       -13.7230
  32   2.0000      -0.504190       -13.7197
  33   2.0000      -0.504187       -13.7196
  34   2.0000      -0.503071       -13.6893
  35   2.0000      -0.503058       -13.6889
  36   2.0000      -0.492099       -13.3907
  37   2.0000      -0.485175       -13.2023
  38   2.0000      -0.485173       -13.2022
  39   2.0000      -0.485063       -13.1992
  40   2.0000      -0.477989       -13.0067
  41   2.0000      -0.466116       -12.6837
  42   2.0000      -0.442626       -12.0445
  43   2.0000      -0.442618       -12.0443
  44   2.0000      -0.329745        -8.9728
  45   2.0000      -0.298522        -8.1232
  46   2.0000      -0.285988        -7.7821
  47   2.0000      -0.285975        -7.7818
  48   0.0000      -0.045012        -1.2248
  49   0.0000      -0.045004        -1.2246
  50   0.0000      -0.042727        -1.1627
  51   0.0000      -0.029976        -0.8157
  52   0.0000      -0.029432        -0.8009

MULLIKEN ATOMIC CHARGES
-----------------------
   0 Mn:    1.908523
   1 O :   -0.436875
   2 C :    0.198634
   3 C :   -0.206506
   4 O :   -0.483377
   5 C :    0.197277
   6 O :   -0.436878
   7 C :    0.195927
   8 O :   -0.437019
   9 C :    0.195657
  10 O :   -0.436918
  11 H :   -0.258445
Sum of atomic charges:    0.0000000

LOEWDIN ATOMIC CHARGES
----------------------
   0 Mn:   -0.449696
   1 O :    0.153105
   2 C :   -0.083659
   3 C :   -0.059581
   4 O :    0.135225
   5 C :   -0.083656
   6 O :    0.153106
   7 C :   -0.083687
   8 O :    0.153088
   9 C :   -0.083674
  10 O :    0.153091
  11 H :    0.096338

  Mayer bond orders larger than 0.100000
B(  0-Mn,  2-C ) :   0.3754 B(  0-Mn,  5-C ) :   0.3735 B(  0-Mn,  7-C ) :   0.3734
B(  0-Mn,  9-C ) :   0.3730 B(  0-Mn, 11-H ) :   0.7124 B(  1-O ,  2-C ) :   1.6418
B(  2-C ,  5-C ) :   0.1416 B(  3-C ,  4-O ) :   1.5935 B(  5-C ,  6-O ) :   1.6419
B(  7-C ,  8-O ) :   1.6418 B(  7-C ,  9-C ) :   0.1398 B(  9-C , 10-O ) :   1.6418

Dispersion correction           -0.001573816
FINAL SINGLE POINT ENERGY     -1718.211129587358

DIPOLE MOMENT
-------------
                                X             Y             Z
Electronic contribution:      0.00007      -0.00016       0.93990
Nuclear contribution   :     -0.00006       0.00014      -0.87929
                        -----------------------------------------
Total Dipole Moment    :      0.00001      -0.00002       0.06061
                        -----------------------------------------
Magnitude (a.u.)       :      0.06061
Magnitude (Debye)      :      0.15406

Rotational constants in cm-1:     0.030200     0.030198     0.023242
Rotational constants in MHz :   905.379927   905.310991   696.775514

                             ****ORCA TERMINATED NORMALLY****
TOTAL RUN TIME: 0 days 0 hours 1 minutes 18 seconds 325 msec
