                         Program Version 4.2.0 -  RELEASE  -
|  1> #
|  2> # MOR03_c2h4 M06-D3/Def2-TZVPPD
|  3> #
|  4> ! m06 d3zero def2-tzvppd def2/jk grid4 nofinalgrid
|  5>
|  6> *xyz 0 1
|  7> C        0.000000    0.665348   -0.000001
|  8> C        0.000000   -0.665348   -0.000001
|  9> H       -0.924311    1.237390    0.000003
| 10> H        0.924311    1.237390    0.000003
| 11> H        0.924311   -1.237390    0.000003
| 12> H       -0.924311   -1.237390    0.000003
| 13> *
| 14>
| 15> %maxcore 5000
| 16>
| 17> %pal
| 18> nprocs = 24
| 19> end
| 20>
| 21>
| 22>                          ****END OF INPUT****

CARTESIAN COORDINATES (ANGSTROEM)
---------------------------------
  C      0.000000    0.665348   -0.000001
  C      0.000000   -0.665348   -0.000001
  H     -0.924311    1.237390    0.000003
  H      0.924311    1.237390    0.000003
  H      0.924311   -1.237390    0.000003
  H     -0.924311   -1.237390    0.000003

 Total Charge           Charge          ....    0
 Multiplicity           Mult            ....    1
 Number of Electrons    NEL             ....   16
 Basis Dimension        Dim             ....  142

ORBITAL ENERGIES
----------------

  NO   OCC          E(Eh)            E(eV)
   0   2.0000     -10.236437      -278.5476
   1   2.0000     -10.235516      -278.5225
   2   2.0000      -0.771020       -20.9805
   3   2.0000      -0.589420       -16.0389
   4   2.0000      -0.480719       -13.0810
   5   2.0000      -0.432670       -11.7736
   6   2.0000      -0.365398        -9.9430
   7   2.0000      -0.288574        -7.8525
   8   0.0000      -0.011498        -0.3129
   9   0.0000      -0.000030        -0.0008
  10   0.0000       0.000039         0.0011
  11   0.0000       0.032354         0.8804
  12   0.0000       0.065873         1.7925

MULLIKEN ATOMIC CHARGES
-----------------------
   0 C :   -0.935263
   1 C :   -0.935273
   2 H :    0.467634
   3 H :    0.467633
   4 H :    0.467633
   5 H :    0.467635
Sum of atomic charges:    0.0000000

LOEWDIN ATOMIC CHARGES
----------------------
   0 C :    0.091981
   1 C :    0.091981
   2 H :   -0.045990
   3 H :   -0.045990
   4 H :   -0.045990
   5 H :   -0.045990

  Mayer bond orders larger than 0.100000
B(  0-C ,  1-C ) :   1.2946 B(  0-C ,  2-H ) :   0.7661 B(  0-C ,  3-H ) :   0.7661
B(  1-C ,  4-H ) :   0.7661 B(  1-C ,  5-H ) :   0.7661

Dispersion correction           -0.000061908
FINAL SINGLE POINT ENERGY       -78.548947770217

DIPOLE MOMENT
-------------
                                X             Y             Z
Electronic contribution:      0.00000       0.00000      -0.00001
Nuclear contribution   :      0.00000       0.00000       0.00001
                        -----------------------------------------
Total Dipole Moment    :      0.00000       0.00000       0.00000
                        -----------------------------------------
Magnitude (a.u.)       :      0.00000
Magnitude (Debye)      :      0.00001

Rotational constants in cm-1:     4.893731     1.002967     0.832372
Rotational constants in MHz : 146710.378489 30068.182911 24953.899728

                             ****ORCA TERMINATED NORMALLY****
TOTAL RUN TIME: 0 days 0 hours 0 minutes 3 seconds 651 msec
