                         Program Version 4.2.0 -  RELEASE  -
|  1> #
|  2> # MOR06_cod M06-D3/Def2-TZVPPD
|  3> #
|  4> ! m06 d3zero def2-tzvppd def2/jk grid4 nofinalgrid
|  5>
|  6> *xyz 0 1
|  7> C        1.191389    1.227675   -0.516531
|  8> C        0.040474   -1.675611   -0.245785
|  9> C       -0.040358    1.675615   -0.245809
| 10> H        1.773340    1.813957   -1.228847
| 11> C       -1.191236   -1.227682   -0.516688
| 12> H        0.358706   -2.571437   -0.779467
| 13> H       -0.358419    2.571431   -0.779611
| 14> H       -1.772889   -1.813647   -1.229501
| 15> C       -1.080136    1.086431    0.676864
| 16> H       -1.767105    1.885380    0.980109
| 17> H       -0.630813    0.710792    1.597907
| 18> C        1.924335    0.021333    0.009175
| 19> H        2.698129    0.353800    0.719005
| 20> H        2.474959   -0.423127   -0.831863
| 21> C        1.079920   -1.086274    0.677130
| 22> H        0.630295   -0.710168    1.597840
| 23> H        1.766727   -1.885140    0.980948
| 24> C       -1.924342   -0.021538    0.009255
| 25> H       -2.697754   -0.354225    0.719400
| 26> H       -2.475456    0.422687   -0.831583
| 27> *
| 28>
| 29> %maxcore 5000
| 30>
| 31> %pal
| 32> nprocs = 24
| 33> end
| 34>
| 35>
| 36>                          ****END OF INPUT****

CARTESIAN COORDINATES (ANGSTROEM)
---------------------------------
  C      1.191389    1.227675   -0.516531
  C      0.040474   -1.675611   -0.245785
  C     -0.040358    1.675615   -0.245809
  H      1.773340    1.813957   -1.228847
  C     -1.191236   -1.227682   -0.516688
  H      0.358706   -2.571437   -0.779467
  H     -0.358419    2.571431   -0.779611
  H     -1.772889   -1.813647   -1.229501
  C     -1.080136    1.086431    0.676864
  H     -1.767105    1.885380    0.980109
  H     -0.630813    0.710792    1.597907
  C      1.924335    0.021333    0.009175
  H      2.698129    0.353800    0.719005
  H      2.474959   -0.423127   -0.831863
  C      1.079920   -1.086274    0.677130
  H      0.630295   -0.710168    1.597840
  H      1.766727   -1.885140    0.980948
  C     -1.924342   -0.021538    0.009255
  H     -2.697754   -0.354225    0.719400
  H     -2.475456    0.422687   -0.831583

 Total Charge           Charge          ....    0
 Multiplicity           Mult            ....    1
 Number of Electrons    NEL             ....   60
 Basis Dimension        Dim             ....  500

ORBITAL ENERGIES
----------------

  NO   OCC          E(Eh)            E(eV)
   0   2.0000     -10.239121      -278.6206
   1   2.0000     -10.239118      -278.6206
   2   2.0000     -10.235243      -278.5151
   3   2.0000     -10.235233      -278.5149
   4   2.0000     -10.230467      -278.3852
   5   2.0000     -10.230462      -278.3850
   6   2.0000     -10.228085      -278.3203
   7   2.0000     -10.228075      -278.3201
   8   2.0000      -0.835850       -22.7446
   9   2.0000      -0.785540       -21.3756
  10   2.0000      -0.779192       -21.2029
  11   2.0000      -0.697178       -18.9712
  12   2.0000      -0.681274       -18.5384
  13   2.0000      -0.605827       -16.4854
  14   2.0000      -0.547822       -14.9070
  15   2.0000      -0.528075       -14.3696
  16   2.0000      -0.489424       -13.3179
  17   2.0000      -0.462474       -12.5846
  18   2.0000      -0.450737       -12.2652
  19   2.0000      -0.445705       -12.1283
  20   2.0000      -0.426999       -11.6192
  21   2.0000      -0.415883       -11.3168
  22   2.0000      -0.383374       -10.4321
  23   2.0000      -0.380505       -10.3541
  24   2.0000      -0.370855       -10.0915
  25   2.0000      -0.345793        -9.4095
  26   2.0000      -0.331091        -9.0094
  27   2.0000      -0.321192        -8.7401
  28   2.0000      -0.255996        -6.9660
  29   2.0000      -0.252843        -6.8802
  30   0.0000      -0.020749        -0.5646
  31   0.0000      -0.011725        -0.3191
  32   0.0000      -0.004302        -0.1171
  33   0.0000      -0.004200        -0.1143
  34   0.0000       0.006792         0.1848

MULLIKEN ATOMIC CHARGES
-----------------------
   0 C :   -0.821816
   1 C :   -0.594388
   2 C :   -0.593924
   3 H :    0.353370
   4 C :   -0.820949
   5 H :    0.455072
   6 H :    0.455074
   7 H :    0.353479
   8 C :   -0.843290
   9 H :    0.697926
  10 H :    0.578942
  11 C :   -1.110440
  12 H :    0.643728
  13 H :    0.640596
  14 C :   -0.843683
  15 H :    0.578864
  16 H :    0.697965
  17 C :   -1.110884
  18 H :    0.643565
  19 H :    0.640794
Sum of atomic charges:    0.0000000

LOEWDIN ATOMIC CHARGES
----------------------
   0 C :    0.001963
   1 C :    0.007719
   2 C :    0.007746
   3 H :   -0.002698
   4 C :    0.001968
   5 H :   -0.000991
   6 H :   -0.001005
   7 H :   -0.002700
   8 C :   -0.030782
   9 H :    0.012902
  10 H :   -0.002351
  11 C :   -0.024438
  12 H :    0.019876
  13 H :    0.018781
  14 C :   -0.030765
  15 H :   -0.002346
  16 H :    0.012905
  17 C :   -0.024433
  18 H :    0.019884
  19 H :    0.018768

  Mayer bond orders larger than 0.100000
B(  0-C ,  2-C ) :   1.1274 B(  0-C ,  3-H ) :   1.0649 B(  0-C , 11-C ) :   0.5733
B(  0-C , 17-C ) :   0.1469 B(  1-C ,  4-C ) :   1.1288 B(  1-C ,  5-H ) :   0.8725
B(  1-C , 11-C ) :   0.1337 B(  1-C , 14-C ) :   0.3151 B(  1-C , 17-C ) :  -0.2115
B(  2-C ,  6-H ) :   0.8727 B(  2-C ,  8-C ) :   0.3149 B(  2-C , 11-C ) :  -0.2113
B(  2-C , 17-C ) :   0.1336 B(  3-H , 11-C ) :  -0.1186 B(  4-C ,  7-H ) :   1.0644
B(  4-C , 11-C ) :   0.1470 B(  4-C , 17-C ) :   0.5732 B(  7-H , 17-C ) :  -0.1185
B(  8-C ,  9-H ) :   0.5495 B(  8-C , 10-H ) :   0.6922 B(  8-C , 17-C ) :   0.2863
B(  9-H , 10-H ) :   0.1086 B( 11-C , 12-H ) :   0.5733 B( 11-C , 13-H ) :   0.6423
B( 11-C , 14-C ) :   0.2867 B( 12-H , 13-H ) :   0.1198 B( 14-C , 15-H ) :   0.6924
B( 14-C , 16-H ) :   0.5494 B( 15-H , 16-H ) :   0.1085 B( 17-C , 18-H ) :   0.5736
B( 17-C , 19-H ) :   0.6418 B( 18-H , 19-H ) :   0.1199

Dispersion correction           -0.002224714
FINAL SINGLE POINT ENERGY      -311.891220332175

DIPOLE MOMENT
-------------
                                X             Y             Z
Electronic contribution:      0.00031      -0.00032      -0.84755
Nuclear contribution   :     -0.00029       0.00032       0.95237
                        -----------------------------------------
Total Dipole Moment    :      0.00002      -0.00000       0.10482
                        -----------------------------------------
Magnitude (a.u.)       :      0.10482
Magnitude (Debye)      :      0.26643

Rotational constants in cm-1:     0.087291     0.074989     0.047810
Rotational constants in MHz :  2616.931187  2248.128417  1433.302108

                             ****ORCA TERMINATED NORMALLY****
TOTAL RUN TIME: 0 days 0 hours 1 minutes 20 seconds 29 msec
