                         Program Version 4.2.0 -  RELEASE  -
|  1> #
|  2> # MOR07_ed01 M06-D3/Def2-TZVPPD
|  3> #
|  4> ! m06 d3zero def2-tzvppd def2/jk grid4 nofinalgrid
|  5>
|  6> *xyz 0 1
|  7> Cr      -0.000046    0.000041   -0.405569
|  8> O       -2.277907    2.043130   -0.317819
|  9> C       -1.422280    1.275470   -0.391359
| 10> C       -0.000325   -0.000192    1.429559
| 11> O       -0.000571   -0.000422    2.587655
| 12> C        1.422359   -1.275089   -0.391211
| 13> O        2.278285   -2.042429   -0.317709
| 14> C        1.275390    1.422211   -0.390822
| 15> O        2.043071    2.277781   -0.316760
| 16> C       -1.275267   -1.422351   -0.391135
| 17> O       -2.042647   -2.278220   -0.317434
| 18> *
| 19>
| 20> %maxcore 5000
| 21>
| 22> %pal
| 23> nprocs = 24
| 24> end
| 25>
| 26>
| 27>                          ****END OF INPUT****

CARTESIAN COORDINATES (ANGSTROEM)
---------------------------------
  Cr    -0.000046    0.000041   -0.405569
  O     -2.277907    2.043130   -0.317819
  C     -1.422280    1.275470   -0.391359
  C     -0.000325   -0.000192    1.429559
  O     -0.000571   -0.000422    2.587655
  C      1.422359   -1.275089   -0.391211
  O      2.278285   -2.042429   -0.317709
  C      1.275390    1.422211   -0.390822
  O      2.043071    2.277781   -0.316760
  C     -1.275267   -1.422351   -0.391135
  O     -2.042647   -2.278220   -0.317434

 Total Charge           Charge          ....    0
 Multiplicity           Mult            ....    1
 Number of Electrons    NEL             ....   94
 Basis Dimension        Dim             ....  452

ORBITAL ENERGIES
----------------

  NO   OCC          E(Eh)            E(eV)
   0   2.0000    -216.018832     -5878.1713
   1   2.0000     -24.957181      -679.1194
   2   2.0000     -21.173130      -576.1502
   3   2.0000     -21.173084      -576.1489
   4   2.0000     -21.173083      -576.1489
   5   2.0000     -19.304406      -525.2996
   6   2.0000     -19.304397      -525.2993
   7   2.0000     -19.304395      -525.2993
   8   2.0000     -19.304387      -525.2991
   9   2.0000     -19.279992      -524.6352
  10   2.0000     -10.369540      -282.1695
  11   2.0000     -10.369524      -282.1691
  12   2.0000     -10.369510      -282.1687
  13   2.0000     -10.369508      -282.1687
  14   2.0000     -10.354123      -281.7500
  15   2.0000      -2.959425       -80.5300
  16   2.0000      -1.884937       -51.2917
  17   2.0000      -1.884935       -51.2917
  18   2.0000      -1.883059       -51.2406
  19   2.0000      -1.167344       -31.7650
  20   2.0000      -1.166811       -31.7506
  21   2.0000      -1.166806       -31.7504
  22   2.0000      -1.166431       -31.7402
  23   2.0000      -1.143643       -31.1201
  24   2.0000      -0.624365       -16.9898
  25   2.0000      -0.591376       -16.0922
  26   2.0000      -0.591372       -16.0921
  27   2.0000      -0.588500       -16.0139
  28   2.0000      -0.575645       -15.6641
  29   2.0000      -0.512781       -13.9535
  30   2.0000      -0.504165       -13.7190
  31   2.0000      -0.498349       -13.5608
  32   2.0000      -0.498347       -13.5607
  33   2.0000      -0.494706       -13.4616
  34   2.0000      -0.492557       -13.4032
  35   2.0000      -0.492553       -13.4031
  36   2.0000      -0.486034       -13.2257
  37   2.0000      -0.479633       -13.0515
  38   2.0000      -0.469035       -12.7631
  39   2.0000      -0.469034       -12.7631
  40   2.0000      -0.465443       -12.6653
  41   2.0000      -0.442520       -12.0416
  42   2.0000      -0.430618       -11.7177
  43   2.0000      -0.430610       -11.7175
  44   2.0000      -0.264343        -7.1931
  45   2.0000      -0.258423        -7.0320
  46   2.0000      -0.258420        -7.0320
  47   0.0000      -0.127668        -3.4740
  48   0.0000      -0.045271        -1.2319
  49   0.0000      -0.045263        -1.2317
  50   0.0000      -0.037192        -1.0120
  51   0.0000      -0.034058        -0.9268

MULLIKEN ATOMIC CHARGES
-----------------------
   0 Cr:    0.730695
   1 O :   -0.400974
   2 C :    0.246949
   3 C :    0.318988
   4 O :   -0.433758
   5 C :    0.246941
   6 O :   -0.400973
   7 C :    0.246959
   8 O :   -0.400939
   9 C :    0.247083
  10 O :   -0.400971
Sum of atomic charges:   -0.0000000

LOEWDIN ATOMIC CHARGES
----------------------
   0 Cr:   -0.220362
   1 O :    0.129371
   2 C :   -0.066343
   3 C :   -0.151872
   4 O :    0.120272
   5 C :   -0.066397
   6 O :    0.129375
   7 C :   -0.066401
   8 O :    0.129371
   9 C :   -0.066384
  10 O :    0.129370

  Mayer bond orders larger than 0.100000
B(  0-Cr,  2-C ) :   0.7595 B(  0-Cr,  3-C ) :   1.1758 B(  0-Cr,  4-O ) :   0.1143
B(  0-Cr,  5-C ) :   0.7597 B(  0-Cr,  7-C ) :   0.7594 B(  0-Cr,  9-C ) :   0.7595
B(  1-O ,  2-C ) :   1.7607 B(  3-C ,  4-O ) :   1.5788 B(  5-C ,  6-O ) :   1.7607
B(  7-C ,  8-O ) :   1.7606 B(  9-C , 10-O ) :   1.7606

Dispersion correction           -0.001347267
FINAL SINGLE POINT ENERGY     -1611.075327128283

DIPOLE MOMENT
-------------
                                X             Y             Z
Electronic contribution:     -0.00031       0.00032      -2.41325
Nuclear contribution   :      0.00017      -0.00015       1.50310
                        -----------------------------------------
Total Dipole Moment    :     -0.00014       0.00017      -0.91016
                        -----------------------------------------
Magnitude (a.u.)       :      0.91016
Magnitude (Debye)      :      2.31344

Rotational constants in cm-1:     0.031146     0.031144     0.021766
Rotational constants in MHz :   933.731625   933.679962   652.524637

                             ****ORCA TERMINATED NORMALLY****
TOTAL RUN TIME: 0 days 0 hours 1 minutes 6 seconds 337 msec
