                         Program Version 4.2.0 -  RELEASE  -
|  1> #
|  2> # MOR05_co M06-D3/Def2-TZVPPD
|  3> #
|  4> ! m06 d3zero def2-tzvppd def2/jk grid4 nofinalgrid
|  5>
|  6> *xyz 0 1
|  7> O        0.000000    0.000000    0.486237
|  8> C        0.000000    0.000000   -0.648315
|  9> *
| 10>
| 11> %maxcore 5000
| 12>
| 13> %pal
| 14> nprocs = 24
| 15> end
| 16>
| 17>
| 18>                          ****END OF INPUT****

CARTESIAN COORDINATES (ANGSTROEM)
---------------------------------
  O      0.000000    0.000000    0.486237
  C      0.000000    0.000000   -0.648315

 Total Charge           Charge          ....    0
 Multiplicity           Mult            ....    1
 Number of Electrons    NEL             ....   14
 Basis Dimension        Dim             ....   77

ORBITAL ENERGIES
----------------

  NO   OCC          E(Eh)            E(eV)
   0   2.0000     -19.313538      -525.5481
   1   2.0000     -10.357989      -281.8552
   2   2.0000      -1.179212       -32.0880
   3   2.0000      -0.589453       -16.0398
   4   2.0000      -0.494040       -13.4435
   5   2.0000      -0.494040       -13.4435
   6   2.0000      -0.390583       -10.6283
   7   0.0000      -0.027346        -0.7441
   8   0.0000      -0.027346        -0.7441
   9   0.0000      -0.010112        -0.2752
  10   0.0000       0.024593         0.6692
  11   0.0000       0.024593         0.6692

MULLIKEN ATOMIC CHARGES
-----------------------
   0 O :   -0.318462
   1 C :    0.318462
Sum of atomic charges:   -0.0000000

LOEWDIN ATOMIC CHARGES
----------------------
   0 O :   -0.005744
   1 C :    0.005744

  Mayer bond orders larger than 0.100000
B(  0-O ,  1-C ) :   2.1980

Dispersion correction           -0.000000008
FINAL SINGLE POINT ENERGY      -113.301055432217

DIPOLE MOMENT
-------------
                                X             Y             Z
Electronic contribution:      0.00000      -0.00000       0.00707
Nuclear contribution   :      0.00000       0.00000       0.00720
                        -----------------------------------------
Total Dipole Moment    :      0.00000      -0.00000       0.01426
                        -----------------------------------------
Magnitude (a.u.)       :      0.01426
Magnitude (Debye)      :      0.03625

Rotational constants in cm-1:     0.000000     1.908926     1.908926
Rotational constants in MHz :     0.000000 57228.174924 57228.174924

                             ****ORCA TERMINATED NORMALLY****
TOTAL RUN TIME: 0 days 0 hours 0 minutes 2 seconds 826 msec
