                         Program Version 4.2.0 -  RELEASE  -
|  1> #
|  2> # MOR02_bz M06-D3/Def2-TZVPPD
|  3> #
|  4> ! m06 d3zero def2-tzvppd def2/jk grid4 nofinalgrid
|  5>
|  6> *xyz 0 1
|  7> C        1.391947    0.103893   -0.000005
|  8> C        0.785946   -1.153510   -0.000002
|  9> C       -0.605997   -1.257403   -0.000005
| 10> C       -1.391947   -0.103892   -0.000002
| 11> C       -0.785947    1.153509   -0.000006
| 12> C        0.605998    1.257403   -0.000002
| 13> H        2.475503    0.184769    0.000018
| 14> H        1.397775   -2.051448    0.000027
| 15> H       -1.077745   -2.236217    0.000018
| 16> H       -2.475502   -0.184774    0.000031
| 17> H       -1.397773    2.051449    0.000014
| 18> H        1.077742    2.236219    0.000031
| 19> *
| 20>
| 21> %maxcore 5000
| 22>
| 23> %pal
| 24> nprocs = 24
| 25> end
| 26>
| 27>
| 28>                          ****END OF INPUT****

CARTESIAN COORDINATES (ANGSTROEM)
---------------------------------
  C      1.391947    0.103893   -0.000005
  C      0.785946   -1.153510   -0.000002
  C     -0.605997   -1.257403   -0.000005
  C     -1.391947   -0.103892   -0.000002
  C     -0.785947    1.153509   -0.000006
  C      0.605998    1.257403   -0.000002
  H      2.475503    0.184769    0.000018
  H      1.397775   -2.051448    0.000027
  H     -1.077745   -2.236217    0.000018
  H     -2.475502   -0.184774    0.000031
  H     -1.397773    2.051449    0.000014
  H      1.077742    2.236219    0.000031

 Total Charge           Charge          ....    0
 Multiplicity           Mult            ....    1
 Number of Electrons    NEL             ....   42
 Basis Dimension        Dim             ....  324

ORBITAL ENERGIES
----------------

  NO   OCC          E(Eh)            E(eV)
   0   2.0000     -10.241861      -278.6952
   1   2.0000     -10.241592      -278.6879
   2   2.0000     -10.241586      -278.6877
   3   2.0000     -10.240975      -278.6711
   4   2.0000     -10.240969      -278.6709
   5   2.0000     -10.240713      -278.6640
   6   2.0000      -0.865573       -23.5534
   7   2.0000      -0.756847       -20.5948
   8   2.0000      -0.756833       -20.5945
   9   2.0000      -0.613542       -16.6953
  10   2.0000      -0.613519       -16.6947
  11   2.0000      -0.535353       -14.5677
  12   2.0000      -0.470363       -12.7992
  13   2.0000      -0.460870       -12.5409
  14   2.0000      -0.432874       -11.7791
  15   2.0000      -0.432832       -11.7780
  16   2.0000      -0.381599       -10.3838
  17   2.0000      -0.356008        -9.6875
  18   2.0000      -0.355953        -9.6860
  19   2.0000      -0.266898        -7.2627
  20   2.0000      -0.266871        -7.2619
  21   0.0000      -0.018926        -0.5150
  22   0.0000      -0.009913        -0.2697
  23   0.0000      -0.009865        -0.2684
  24   0.0000      -0.005702        -0.1552
  25   0.0000      -0.005468        -0.1488

MULLIKEN ATOMIC CHARGES
-----------------------
   0 C :   -0.459224
   1 C :   -0.447301
   2 C :   -0.439424
   3 C :   -0.459198
   4 C :   -0.447087
   5 C :   -0.439598
   6 H :    0.448132
   7 H :    0.454116
   8 H :    0.443731
   9 H :    0.447994
  10 H :    0.454090
  11 H :    0.443769
Sum of atomic charges:    0.0000000

LOEWDIN ATOMIC CHARGES
----------------------
   0 C :   -0.000777
   1 C :   -0.000652
   2 C :   -0.000705
   3 C :   -0.000777
   4 C :   -0.000652
   5 C :   -0.000705
   6 H :    0.000713
   7 H :    0.000784
   8 H :    0.000637
   9 H :    0.000713
  10 H :    0.000784
  11 H :    0.000637

  Mayer bond orders larger than 0.100000
B(  0-C ,  1-C ) :   0.8864 B(  0-C ,  5-C ) :   0.8846 B(  0-C ,  6-H ) :   0.8840
B(  1-C ,  2-C ) :   0.8706 B(  1-C ,  7-H ) :   0.8787 B(  2-C ,  3-C ) :   0.8845
B(  2-C ,  8-H ) :   0.8919 B(  3-C ,  4-C ) :   0.8856 B(  3-C ,  9-H ) :   0.8843
B(  4-C ,  5-C ) :   0.8708 B(  4-C , 10-H ) :   0.8788 B(  5-C , 11-H ) :   0.8918

Dispersion correction           -0.000728509
FINAL SINGLE POINT ENERGY      -232.142060845072

DIPOLE MOMENT
-------------
                                X             Y             Z
Electronic contribution:     -0.00000       0.00000      -0.00010
Nuclear contribution   :      0.00000      -0.00000       0.00014
                        -----------------------------------------
Total Dipole Moment    :     -0.00000      -0.00000       0.00004
                        -----------------------------------------
Magnitude (a.u.)       :      0.00004
Magnitude (Debye)      :      0.00010

Rotational constants in cm-1:     0.189759     0.189757     0.094879
Rotational constants in MHz :  5688.823776  5688.770067  2844.398461

                             ****ORCA TERMINATED NORMALLY****
TOTAL RUN TIME: 0 days 0 hours 0 minutes 18 seconds 69 msec
