                         Program Version 4.2.0 -  RELEASE  -
|  1> #
|  2> # MOR16_ed33 M06-D3/Def2-TZVPPD
|  3> #
|  4> ! m06 d3zero def2-tzvppd def2/jk grid4 nofinalgrid
|  5>
|  6> *xyz 0 1
|  7> Ru      -0.022566   -0.070875   -0.379144
|  8> P        0.186586   -1.836138    1.061273
|  9> P       -0.107348    1.786969    0.983128
| 10> P       -2.337688   -0.031549   -0.574608
| 11> P        2.258415    0.217420   -0.654771
| 12> H       -1.011320    0.631023   -2.964588
| 13> C       -0.084126    0.244754   -2.536818
| 14> C        0.002235   -1.177677   -2.238071
| 15> H       -0.861138   -1.806799   -2.436001
| 16> C       -1.265405   -2.900768    1.510519
| 17> C        0.882199   -1.676365    2.777543
| 18> C        1.273276   -3.202818    0.434593
| 19> C       -0.218657    3.482246    0.220382
| 20> C       -1.474202    1.984957    2.229068
| 21> C        1.261931    2.159069    2.186793
| 22> C       -3.132442   -1.089929   -1.868209
| 23> C       -3.503325   -0.454941    0.806619
| 24> C       -3.065826    1.589188   -1.096490
| 25> C        3.115513   -0.738567   -1.988082
| 26> C        3.484163   -0.113039    0.695104
| 27> C        2.817918    1.905477   -1.167131
| 28> H        0.775994    0.734504   -2.997508
| 29> H        0.923698   -1.705224   -2.468332
| 30> H       -1.797994   -3.196368    0.601740
| 31> H       -1.951513   -2.343187    2.152343
| 32> H       -0.940552   -3.802999    2.042563
| 33> H        0.220858   -1.033459    3.367392
| 34> H        1.866404   -1.203417    2.738274
| 35> H        0.973380   -2.648584    3.278375
| 36> H        0.869924   -3.550933   -0.520488
| 37> H        1.326184   -4.042772    1.138076
| 38> H        2.284288   -2.829356    0.252702
| 39> H       -0.255493    4.275719    0.977504
| 40> H       -1.111307    3.540133   -0.406666
| 41> H        0.646533    3.642441   -0.427500
| 42> H       -1.340744    2.904812    2.810047
| 43> H       -1.464232    1.128616    2.910406
| 44> H       -2.450699    2.022913    1.741739
| 45> H        1.024646    3.051958    2.776564
| 46> H        2.206281    2.332826    1.666415
| 47> H        1.391528    1.309503    2.862930
| 48> H       -4.214574   -0.920776   -1.864995
| 49> H       -2.933677   -2.144929   -1.660324
| 50> H       -2.737237   -0.849967   -2.858203
| 51> H       -4.496496   -0.037297    0.606865
| 52> H       -3.139236   -0.075571    1.761748
| 53> H       -3.591401   -1.541056    0.877459
| 54> H       -4.128475    1.484093   -1.343350
| 55> H       -2.520683    1.955160   -1.969951
| 56> H       -2.964031    2.325987   -0.296631
| 57> H        4.171126   -0.449128   -2.023284
| 58> H        2.657332   -0.533147   -2.958558
| 59> H        3.043678   -1.811163   -1.790971
| 60> H        4.490887    0.184953    0.381316
| 61> H        3.492626   -1.181661    0.925550
| 62> H        3.218142    0.429172    1.603169
| 63> H        3.886252    1.913189   -1.411457
| 64> H        2.634640    2.627880   -0.369051
| 65> H        2.240286    2.211368   -2.043241
| 66> *
| 67>
| 68> %maxcore 5000
| 69>
| 70> %pal
| 71> nprocs = 24
| 72> end
| 73>
| 74>
| 75>                          ****END OF INPUT****

CARTESIAN COORDINATES (ANGSTROEM)
---------------------------------
  Ru    -0.022566   -0.070875   -0.379144
  P      0.186586   -1.836138    1.061273
  P     -0.107348    1.786969    0.983128
  P     -2.337688   -0.031549   -0.574608
  P      2.258415    0.217420   -0.654771
  H     -1.011320    0.631023   -2.964588
  C     -0.084126    0.244754   -2.536818
  C      0.002235   -1.177677   -2.238071
  H     -0.861138   -1.806799   -2.436001
  C     -1.265405   -2.900768    1.510519
  C      0.882199   -1.676365    2.777543
  C      1.273276   -3.202818    0.434593
  C     -0.218657    3.482246    0.220382
  C     -1.474202    1.984957    2.229068
  C      1.261931    2.159069    2.186793
  C     -3.132442   -1.089929   -1.868209
  C     -3.503325   -0.454941    0.806619
  C     -3.065826    1.589188   -1.096490
  C      3.115513   -0.738567   -1.988082
  C      3.484163   -0.113039    0.695104
  C      2.817918    1.905477   -1.167131
  H      0.775994    0.734504   -2.997508
  H      0.923698   -1.705224   -2.468332
  H     -1.797994   -3.196368    0.601740
  H     -1.951513   -2.343187    2.152343
  H     -0.940552   -3.802999    2.042563
  H      0.220858   -1.033459    3.367392
  H      1.866404   -1.203417    2.738274
  H      0.973380   -2.648584    3.278375
  H      0.869924   -3.550933   -0.520488
  H      1.326184   -4.042772    1.138076
  H      2.284288   -2.829356    0.252702
  H     -0.255493    4.275719    0.977504
  H     -1.111307    3.540133   -0.406666
  H      0.646533    3.642441   -0.427500
  H     -1.340744    2.904812    2.810047
  H     -1.464232    1.128616    2.910406
  H     -2.450699    2.022913    1.741739
  H      1.024646    3.051958    2.776564
  H      2.206281    2.332826    1.666415
  H      1.391528    1.309503    2.862930
  H     -4.214574   -0.920776   -1.864995
  H     -2.933677   -2.144929   -1.660324
  H     -2.737237   -0.849967   -2.858203
  H     -4.496496   -0.037297    0.606865
  H     -3.139236   -0.075571    1.761748
  H     -3.591401   -1.541056    0.877459
  H     -4.128475    1.484093   -1.343350
  H     -2.520683    1.955160   -1.969951
  H     -2.964031    2.325987   -0.296631
  H      4.171126   -0.449128   -2.023284
  H      2.657332   -0.533147   -2.958558
  H      3.043678   -1.811163   -1.790971
  H      4.490887    0.184953    0.381316
  H      3.492626   -1.181661    0.925550
  H      3.218142    0.429172    1.603169
  H      3.886252    1.913189   -1.411457
  H      2.634640    2.627880   -0.369051
  H      2.240286    2.211368   -2.043241

 Total Charge           Charge          ....    0
 Multiplicity           Mult            ....    1
 Number of Electrons    NEL             ....  200
 Basis Dimension        Dim             .... 1446

ORBITAL ENERGIES
----------------

  NO   OCC          E(Eh)            E(eV)
   0   2.0000     -77.233327     -2101.6257
   1   2.0000     -77.231939     -2101.5879
   2   2.0000     -77.226052     -2101.4277
   3   2.0000     -77.222917     -2101.3424
   4   2.0000     -10.228404      -278.3290
   5   2.0000     -10.225947      -278.2622
   6   2.0000     -10.225188      -278.2415
   7   2.0000     -10.224319      -278.2179
   8   2.0000     -10.223488      -278.1953
   9   2.0000     -10.223312      -278.1905
  10   2.0000     -10.223259      -278.1890
  11   2.0000     -10.222682      -278.1733
  12   2.0000     -10.220367      -278.1103
  13   2.0000     -10.219918      -278.0981
  14   2.0000     -10.217870      -278.0424
  15   2.0000     -10.217060      -278.0203
  16   2.0000     -10.191469      -277.3240
  17   2.0000     -10.184638      -277.1381
  18   2.0000      -6.657115      -181.1493
  19   2.0000      -6.655815      -181.1139
  20   2.0000      -6.648706      -180.9205
  21   2.0000      -6.645799      -180.8414
  22   2.0000      -4.778224      -130.0221
  23   2.0000      -4.778021      -130.0166
  24   2.0000      -4.776903      -129.9861
  25   2.0000      -4.776745      -129.9818
  26   2.0000      -4.774543      -129.9219
  27   2.0000      -4.773210      -129.8856
  28   2.0000      -4.770007      -129.7985
  29   2.0000      -4.769615      -129.7878
  30   2.0000      -4.766989      -129.7164
  31   2.0000      -4.766822      -129.7118
  32   2.0000      -4.766155      -129.6937
  33   2.0000      -4.763203      -129.6133
  34   2.0000      -2.946283       -80.1724
  35   2.0000      -1.809805       -49.2473
  36   2.0000      -1.802059       -49.0365
  37   2.0000      -1.794538       -48.8319
  38   2.0000      -0.779265       -21.2049
  39   2.0000      -0.774220       -21.0676
  40   2.0000      -0.765524       -20.8310
  41   2.0000      -0.763968       -20.7886
  42   2.0000      -0.717980       -19.5372
  43   2.0000      -0.702417       -19.1137
  44   2.0000      -0.700576       -19.0637
  45   2.0000      -0.699433       -19.0326
  46   2.0000      -0.693142       -18.8614
  47   2.0000      -0.691701       -18.8221
  48   2.0000      -0.690839       -18.7987
  49   2.0000      -0.689708       -18.7679
  50   2.0000      -0.688427       -18.7331
  51   2.0000      -0.559439       -15.2231
  52   2.0000      -0.555521       -15.1165
  53   2.0000      -0.546071       -14.8594
  54   2.0000      -0.540727       -14.7139
  55   2.0000      -0.539592       -14.6830
  56   2.0000      -0.467315       -12.7163
  57   2.0000      -0.465892       -12.6776
  58   2.0000      -0.457657       -12.4535
  59   2.0000      -0.452819       -12.3218
  60   2.0000      -0.446489       -12.1496
  61   2.0000      -0.443200       -12.0601
  62   2.0000      -0.440833       -11.9957
  63   2.0000      -0.436892       -11.8884
  64   2.0000      -0.432700       -11.7744
  65   2.0000      -0.429113       -11.6768
  66   2.0000      -0.425440       -11.5768
  67   2.0000      -0.422322       -11.4920
  68   2.0000      -0.420137       -11.4325
  69   2.0000      -0.410310       -11.1651
  70   2.0000      -0.407005       -11.0752
  71   2.0000      -0.405603       -11.0370
  72   2.0000      -0.401601       -10.9281
  73   2.0000      -0.399674       -10.8757
  74   2.0000      -0.398109       -10.8331
  75   2.0000      -0.396255       -10.7827
  76   2.0000      -0.394346       -10.7307
  77   2.0000      -0.392418       -10.6782
  78   2.0000      -0.391203       -10.6452
  79   2.0000      -0.390139       -10.6162
  80   2.0000      -0.387251       -10.5376
  81   2.0000      -0.384260       -10.4563
  82   2.0000      -0.347614        -9.4590
  83   2.0000      -0.345110        -9.3909
  84   2.0000      -0.339959        -9.2508
  85   2.0000      -0.337397        -9.1810
  86   2.0000      -0.331483        -9.0201
  87   2.0000      -0.330211        -8.9855
  88   2.0000      -0.326684        -8.8895
  89   2.0000      -0.324855        -8.8398
  90   2.0000      -0.322748        -8.7824
  91   2.0000      -0.319995        -8.7075
  92   2.0000      -0.306964        -8.3529
  93   2.0000      -0.298542        -8.1238
  94   2.0000      -0.254656        -6.9295
  95   2.0000      -0.249543        -6.7904
  96   2.0000      -0.201014        -5.4699
  97   2.0000      -0.198722        -5.4075
  98   2.0000      -0.183693        -4.9985
  99   2.0000      -0.159421        -4.3381
 100   0.0000      -0.030555        -0.8314
 101   0.0000      -0.021276        -0.5789
 102   0.0000      -0.018029        -0.4906
 103   0.0000      -0.015654        -0.4260
 104   0.0000      -0.004076        -0.1109

MULLIKEN ATOMIC CHARGES
-----------------------
   0 Ru:   -1.424588
   1 P :    2.705972
   2 P :    2.375622
   3 P :    2.903724
   4 P :    2.401686
   5 H :    0.577948
   6 C :   -1.555820
   7 C :   -0.922076
   8 H :    0.516787
   9 C :   -2.336880
  10 C :   -2.456899
  11 C :   -2.505644
  12 C :   -2.930544
  13 C :   -2.240327
  14 C :   -2.138564
  15 C :   -2.483698
  16 C :   -2.456718
  17 C :   -2.618228
  18 C :   -2.475457
  19 C :   -2.414927
  20 C :   -2.465535
  21 H :    0.560614
  22 H :    0.445843
  23 H :    0.517561
  24 H :    0.406778
  25 H :    0.690522
  26 H :    0.496743
  27 H :    0.513686
  28 H :    0.672473
  29 H :    0.491051
  30 H :    0.629243
  31 H :    0.589402
  32 H :    0.583093
  33 H :    0.685011
  34 H :    0.670490
  35 H :    0.622201
  36 H :    0.440995
  37 H :    0.616575
  38 H :    0.630356
  39 H :    0.592243
  40 H :    0.387878
  41 H :    0.762825
  42 H :    0.485260
  43 H :    0.579318
  44 H :    0.762923
  45 H :    0.458521
  46 H :    0.559291
  47 H :    0.682976
  48 H :    0.448292
  49 H :    0.645110
  50 H :    0.759260
  51 H :    0.584632
  52 H :    0.496766
  53 H :    0.687230
  54 H :    0.618678
  55 H :    0.403798
  56 H :    0.695330
  57 H :    0.650983
  58 H :    0.420214
Sum of atomic charges:    0.0000000

LOEWDIN ATOMIC CHARGES
----------------------
   0 Ru:    0.130680
   1 P :    0.778177
   2 P :    0.766249
   3 P :    0.827539
   4 P :    0.822296
   5 H :   -0.092205
   6 C :   -0.149775
   7 C :   -0.159015
   8 H :   -0.094623
   9 C :   -0.049649
  10 C :   -0.043361
  11 C :   -0.037980
  12 C :   -0.023564
  13 C :   -0.049410
  14 C :   -0.044625
  15 C :   -0.033903
  16 C :   -0.027711
  17 C :   -0.031756
  18 C :   -0.027726
  19 C :   -0.024791
  20 C :   -0.026731
  21 H :   -0.091474
  22 H :   -0.095710
  23 H :   -0.058310
  24 H :   -0.068745
  25 H :   -0.052259
  26 H :   -0.062153
  27 H :   -0.080000
  28 H :   -0.051625
  29 H :   -0.051959
  30 H :   -0.052207
  31 H :   -0.085530
  32 H :   -0.050060
  33 H :   -0.072475
  34 H :   -0.071343
  35 H :   -0.051222
  36 H :   -0.059185
  37 H :   -0.083790
  38 H :   -0.050421
  39 H :   -0.083754
  40 H :   -0.064672
  41 H :   -0.045533
  42 H :   -0.053149
  43 H :   -0.054613
  44 H :   -0.044656
  45 H :   -0.077870
  46 H :   -0.068942
  47 H :   -0.048672
  48 H :   -0.056983
  49 H :   -0.082159
  50 H :   -0.046469
  51 H :   -0.053567
  52 H :   -0.057099
  53 H :   -0.045220
  54 H :   -0.069210
  55 H :   -0.081411
  56 H :   -0.047643
  57 H :   -0.083528
  58 H :   -0.054499

  Mayer bond orders larger than 0.100000
B(  0-Ru,  1-P ) :   0.6503 B(  0-Ru,  2-P ) :   0.9372 B(  0-Ru,  3-P ) :   1.1225
B(  0-Ru,  4-P ) :   1.3110 B(  0-Ru,  5-H ) :   0.3786 B(  0-Ru,  6-C ) :   0.2922
B(  0-Ru,  8-H ) :   0.2622 B(  0-Ru,  9-C ) :   0.1204 B(  0-Ru, 11-C ) :   0.2023
B(  0-Ru, 12-C ) :   0.1104 B(  0-Ru, 16-C ) :   0.1157 B(  0-Ru, 21-H ) :   0.5205
B(  0-Ru, 22-H ) :   0.2409 B(  1-P ,  2-P ) :   0.4293 B(  1-P ,  3-P ) :  -0.1478
B(  1-P ,  4-P ) :   0.2746 B(  1-P ,  9-C ) :  -0.2427 B(  1-P , 10-C ) :  -0.1321
B(  1-P , 11-C ) :  -0.1713 B(  1-P , 19-C ) :  -0.1314 B(  1-P , 23-H ) :  -0.1422
B(  1-P , 24-H ) :  -0.2321 B(  1-P , 26-H ) :  -0.1704 B(  1-P , 27-H ) :  -0.1281
B(  1-P , 29-H ) :  -0.1208 B(  1-P , 31-H ) :  -0.1407 B(  2-P ,  3-P ) :   0.2223
B(  2-P ,  4-P ) :   0.2381 B(  2-P , 12-C ) :  -0.4367 B(  2-P , 13-C ) :  -0.4237
B(  2-P , 14-C ) :  -0.4604 B(  2-P , 32-H ) :  -0.1037 B(  2-P , 33-H ) :  -0.1387
B(  2-P , 34-H ) :  -0.1947 B(  2-P , 36-H ) :  -0.1072 B(  2-P , 37-H ) :  -0.1141
B(  2-P , 39-H ) :  -0.1217 B(  3-P ,  4-P ) :   0.3099 B(  3-P ,  6-C ) :   0.1611
B(  3-P ,  7-C ) :  -0.2226 B(  3-P ,  8-H ) :  -0.1401 B(  3-P ,  9-C ) :  -0.1145
B(  3-P , 13-C ) :  -0.1117 B(  3-P , 15-C ) :  -0.5548 B(  3-P , 16-C ) :  -0.4823
B(  3-P , 17-C ) :  -0.4606 B(  3-P , 42-H ) :  -0.2260 B(  3-P , 43-H ) :  -0.1336
B(  3-P , 45-H ) :  -0.2753 B(  3-P , 48-H ) :  -0.1583 B(  3-P , 49-H ) :  -0.1306
B(  4-P ,  6-C ) :   0.1831 B(  4-P ,  7-C ) :  -0.2040 B(  4-P , 14-C ) :  -0.1175
B(  4-P , 18-C ) :  -0.3889 B(  4-P , 19-C ) :  -0.1900 B(  4-P , 20-C ) :  -0.4659
B(  4-P , 21-H ) :  -0.1432 B(  4-P , 51-H ) :  -0.1460 B(  4-P , 52-H ) :  -0.2642
B(  4-P , 54-H ) :  -0.1228 B(  4-P , 55-H ) :  -0.2351 B(  4-P , 57-H ) :  -0.1261
B(  4-P , 58-H ) :  -0.2021 B(  5-H ,  6-C ) :   0.5696 B(  5-H ,  7-C ) :  -0.1841
B(  6-C ,  7-C ) :   2.2710 B(  6-C , 21-H ) :   0.6099 B(  6-C , 22-H ) :  -0.1365
B(  7-C ,  8-H ) :   0.7012 B(  7-C , 21-H ) :  -0.1402 B(  7-C , 22-H ) :   0.7713
B(  9-C , 10-C ) :   0.1365 B(  9-C , 11-C ) :   0.2329 B(  9-C , 23-H ) :   0.8902
B(  9-C , 24-H ) :   1.0974 B(  9-C , 25-H ) :   0.6242 B( 10-C , 11-C ) :   0.2657
B( 10-C , 26-H ) :   0.9557 B( 10-C , 27-H ) :   0.9002 B( 10-C , 28-H ) :   0.6631
B( 11-C , 29-H ) :   1.0240 B( 11-C , 30-H ) :   0.7434 B( 11-C , 31-H ) :   0.7703
B( 12-C , 13-C ) :   0.2405 B( 12-C , 14-C ) :   0.2309 B( 12-C , 32-H ) :   0.8435
B( 12-C , 33-H ) :   0.7554 B( 12-C , 34-H ) :   0.8400 B( 13-C , 14-C ) :   0.2218
B( 13-C , 17-C ) :   0.1548 B( 13-C , 35-H ) :   0.7595 B( 13-C , 36-H ) :   0.9622
B( 13-C , 37-H ) :   0.7562 B( 14-C , 20-C ) :   0.1459 B( 14-C , 38-H ) :   0.7117
B( 14-C , 39-H ) :   0.7691 B( 14-C , 40-H ) :   1.0253 B( 15-C , 16-C ) :   0.1232
B( 15-C , 17-C ) :   0.3231 B( 15-C , 41-H ) :   0.4370 B( 15-C , 42-H ) :   1.0887
B( 15-C , 43-H ) :   0.8134 B( 16-C , 17-C ) :   0.2852 B( 16-C , 44-H ) :   0.4014
B( 16-C , 45-H ) :   1.1673 B( 16-C , 46-H ) :   0.7937 B( 17-C , 47-H ) :   0.6169
B( 17-C , 48-H ) :   1.0446 B( 17-C , 49-H ) :   0.7638 B( 18-C , 19-C ) :   0.1255
B( 18-C , 20-C ) :   0.2425 B( 18-C , 50-H ) :   0.4479 B( 18-C , 51-H ) :   0.8122
B( 18-C , 52-H ) :   1.0958 B( 19-C , 20-C ) :   0.2715 B( 19-C , 53-H ) :   0.6024
B( 19-C , 54-H ) :   0.7813 B( 19-C , 55-H ) :   1.1194 B( 20-C , 56-H ) :   0.6006
B( 20-C , 57-H ) :   0.7283 B( 20-C , 58-H ) :   1.1162 B( 23-H , 24-H ) :   0.2381
B( 26-H , 27-H ) :   0.2618 B( 29-H , 30-H ) :   0.1008 B( 29-H , 31-H ) :   0.1615
B( 33-H , 34-H ) :   0.1858 B( 36-H , 37-H ) :   0.2254 B( 39-H , 40-H ) :   0.2588
B( 41-H , 42-H ) :   0.1006 B( 41-H , 43-H ) :   0.1199 B( 42-H , 43-H ) :   0.1553
B( 44-H , 45-H ) :   0.1263 B( 44-H , 46-H ) :   0.1242 B( 45-H , 46-H ) :   0.1888
B( 48-H , 49-H ) :   0.2597 B( 50-H , 52-H ) :   0.1140 B( 51-H , 52-H ) :   0.1974
B( 54-H , 55-H ) :   0.3311 B( 56-H , 58-H ) :   0.1190 B( 57-H , 58-H ) :   0.2413

Dispersion correction           -0.016027671
FINAL SINGLE POINT ENERGY     -2017.793933503478

DIPOLE MOMENT
-------------
                                X             Y             Z
Electronic contribution:     -1.80535      -5.14590     -26.96627
Nuclear contribution   :      1.82563       5.30534      27.72313
                        -----------------------------------------
Total Dipole Moment    :      0.02029       0.15944       0.75687
                        -----------------------------------------
Magnitude (a.u.)       :      0.77374
Magnitude (Debye)      :      1.96670

Rotational constants in cm-1:     0.009351     0.007693     0.006898
Rotational constants in MHz :   280.325632   230.636339   206.809498

                             ****ORCA TERMINATED NORMALLY****
TOTAL RUN TIME: 0 days 0 hours 48 minutes 14 seconds 397 msec
