                         Program Version 4.2.0 -  RELEASE  -
|  1> #
|  2> # MOR12_ed18 M06-D3/Def2-TZVPPD
|  3> #
|  4> ! m06 d3zero def2-tzvppd def2/jk grid4 nofinalgrid
|  5>
|  6> *xyz 0 1
|  7> Ir       0.000009    0.119441   -0.001134
|  8> P        2.313164   -0.026854    0.000864
|  9> C        3.266155    1.538041    0.001301
| 10> C        2.990776   -0.938546    1.437922
| 11> H        4.076753   -1.056364    1.355244
| 12> H        4.080827   -1.059585   -1.345638
| 13> H        2.508332   -1.918605    1.474823
| 14> H        2.511934   -1.920062   -1.470843
| 15> H        3.000883    2.123603    0.885753
| 16> H        2.748975   -0.395301    2.355327
| 17> C        2.995346   -0.940504   -1.432774
| 18> H        4.343510    1.342437    0.003886
| 19> H        2.757870   -0.397739   -2.351580
| 20> H        3.004825    2.121649   -0.885628
| 21> P       -2.313239   -0.026297    0.000821
| 22> C       -3.266059    1.538685   -0.001751
| 23> C       -2.995240   -0.942628   -1.431183
| 24> H       -2.509974   -1.915937    1.477317
| 25> H       -4.077346   -1.051885    1.357522
| 26> H       -2.748166   -0.391240    2.356043
| 27> C       -2.991181   -0.935299    1.439450
| 28> H       -2.510085   -1.921339   -1.468610
| 29> H       -4.080420   -1.063528   -1.342825
| 30> H       -4.343438    1.343207   -0.001601
| 31> H       -3.002541    2.121837   -0.888321
| 32> H       -2.759672   -0.400400   -2.350803
| 33> H       -3.002807    2.124611    0.883073
| 34> C        0.000649    1.940082   -0.001490
| 35> O        0.001240    3.110505   -0.001979
| 36> Cl      -0.000683   -2.266357   -0.002005
| 37> *
| 38>
| 39> %maxcore 5000
| 40>
| 41> %pal
| 42> nprocs = 24
| 43> end
| 44>
| 45>
| 46>                          ****END OF INPUT****

CARTESIAN COORDINATES (ANGSTROEM)
---------------------------------
  Ir     0.000009    0.119441   -0.001134
  P      2.313164   -0.026854    0.000864
  C      3.266155    1.538041    0.001301
  C      2.990776   -0.938546    1.437922
  H      4.076753   -1.056364    1.355244
  H      4.080827   -1.059585   -1.345638
  H      2.508332   -1.918605    1.474823
  H      2.511934   -1.920062   -1.470843
  H      3.000883    2.123603    0.885753
  H      2.748975   -0.395301    2.355327
  C      2.995346   -0.940504   -1.432774
  H      4.343510    1.342437    0.003886
  H      2.757870   -0.397739   -2.351580
  H      3.004825    2.121649   -0.885628
  P     -2.313239   -0.026297    0.000821
  C     -3.266059    1.538685   -0.001751
  C     -2.995240   -0.942628   -1.431183
  H     -2.509974   -1.915937    1.477317
  H     -4.077346   -1.051885    1.357522
  H     -2.748166   -0.391240    2.356043
  C     -2.991181   -0.935299    1.439450
  H     -2.510085   -1.921339   -1.468610
  H     -4.080420   -1.063528   -1.342825
  H     -4.343438    1.343207   -0.001601
  H     -3.002541    2.121837   -0.888321
  H     -2.759672   -0.400400   -2.350803
  H     -3.002807    2.124611    0.883073
  C      0.000649    1.940082   -0.001490
  O      0.001240    3.110505   -0.001979
  Cl    -0.000683   -2.266357   -0.002005

 Total Charge           Charge          ....    0
 Multiplicity           Mult            ....    1
 Number of Electrons    NEL             ....  132
 Basis Dimension        Dim             ....  811

ORBITAL ENERGIES
----------------

  NO   OCC          E(Eh)            E(eV)
   0   2.0000    -101.644337     -2765.8830
   1   2.0000     -77.252590     -2102.1499
   2   2.0000     -77.252581     -2102.1496
   3   2.0000     -19.245553      -523.6981
   4   2.0000     -10.327985      -281.0388
   5   2.0000     -10.243722      -278.7458
   6   2.0000     -10.243718      -278.7458
   7   2.0000     -10.238051      -278.5915
   8   2.0000     -10.238040      -278.5912
   9   2.0000     -10.238031      -278.5910
  10   2.0000     -10.237997      -278.5901
  11   2.0000      -9.520176      -259.0572
  12   2.0000      -7.225532      -196.6167
  13   2.0000      -7.222303      -196.5289
  14   2.0000      -7.221808      -196.5154
  15   2.0000      -6.678196      -181.7230
  16   2.0000      -6.678188      -181.7227
  17   2.0000      -4.799032      -130.5883
  18   2.0000      -4.799024      -130.5881
  19   2.0000      -4.798724      -130.5799
  20   2.0000      -4.798716      -130.5797
  21   2.0000      -4.795938      -130.5041
  22   2.0000      -4.795926      -130.5038
  23   2.0000      -3.663236       -99.6817
  24   2.0000      -2.025575       -55.1187
  25   2.0000      -2.013443       -54.7886
  26   2.0000      -1.986116       -54.0450
  27   2.0000      -1.107095       -30.1256
  28   2.0000      -0.793837       -21.6014
  29   2.0000      -0.790455       -21.5094
  30   2.0000      -0.766394       -20.8546
  31   2.0000      -0.715968       -19.4825
  32   2.0000      -0.715437       -19.4680
  33   2.0000      -0.711750       -19.3677
  34   2.0000      -0.711714       -19.3667
  35   2.0000      -0.577377       -15.7112
  36   2.0000      -0.561451       -15.2778
  37   2.0000      -0.559446       -15.2233
  38   2.0000      -0.472848       -12.8669
  39   2.0000      -0.466084       -12.6828
  40   2.0000      -0.463104       -12.6017
  41   2.0000      -0.454933       -12.3793
  42   2.0000      -0.451457       -12.2848
  43   2.0000      -0.450652       -12.2629
  44   2.0000      -0.447353       -12.1731
  45   2.0000      -0.443351       -12.0642
  46   2.0000      -0.439543       -11.9606
  47   2.0000      -0.426770       -11.6130
  48   2.0000      -0.424014       -11.5380
  49   2.0000      -0.423987       -11.5373
  50   2.0000      -0.421395       -11.4667
  51   2.0000      -0.408647       -11.1199
  52   2.0000      -0.408344       -11.1116
  53   2.0000      -0.367369        -9.9966
  54   2.0000      -0.362380        -9.8609
  55   2.0000      -0.360191        -9.8013
  56   2.0000      -0.359153        -9.7731
  57   2.0000      -0.357098        -9.7171
  58   2.0000      -0.315820        -8.5939
  59   2.0000      -0.311037        -8.4637
  60   2.0000      -0.300233        -8.1697
  61   2.0000      -0.270165        -7.3516
  62   2.0000      -0.242943        -6.6108
  63   2.0000      -0.242833        -6.6078
  64   2.0000      -0.234923        -6.3926
  65   2.0000      -0.217038        -5.9059
  66   0.0000      -0.037745        -1.0271
  67   0.0000      -0.030505        -0.8301
  68   0.0000      -0.029173        -0.7938
  69   0.0000      -0.020454        -0.5566
  70   0.0000      -0.008367        -0.2277

MULLIKEN ATOMIC CHARGES
-----------------------
   0 Ir:    0.689508
   1 P :    1.073097
   2 C :   -1.969769
   3 C :   -2.025452
   4 H :    0.602253
   5 H :    0.602026
   6 H :    0.558393
   7 H :    0.557712
   8 H :    0.525986
   9 H :    0.552519
  10 C :   -2.024512
  11 H :    0.629088
  12 H :    0.552268
  13 H :    0.525669
  14 P :    1.073127
  15 C :   -1.969740
  16 C :   -2.023154
  17 H :    0.559127
  18 H :    0.602382
  19 H :    0.552332
  20 C :   -2.026408
  21 H :    0.556609
  22 H :    0.601791
  23 H :    0.629168
  24 H :    0.525363
  25 H :    0.552601
  26 H :    0.526077
  27 C :    0.213973
  28 O :   -0.604231
  29 Cl:   -0.617801
Sum of atomic charges:    0.0000000

LOEWDIN ATOMIC CHARGES
----------------------
   0 Ir:    0.367054
   1 P :    0.707327
   2 C :   -0.033782
   3 C :   -0.039181
   4 H :   -0.044188
   5 H :   -0.044178
   6 H :   -0.077099
   7 H :   -0.077189
   8 H :   -0.045626
   9 H :   -0.047811
  10 C :   -0.039148
  11 H :   -0.044837
  12 H :   -0.047790
  13 H :   -0.045565
  14 P :    0.707305
  15 C :   -0.033775
  16 C :   -0.039262
  17 H :   -0.076918
  18 H :   -0.044195
  19 H :   -0.047841
  20 C :   -0.039133
  21 H :   -0.077536
  22 H :   -0.044174
  23 H :   -0.044840
  24 H :   -0.045612
  25 H :   -0.047761
  26 H :   -0.045596
  27 C :   -0.483903
  28 O :   -0.000441
  29 Cl:   -0.124305

  Mayer bond orders larger than 0.100000
B(  0-Ir,  1-P ) :   0.8603 B(  0-Ir, 14-P ) :   0.8606 B(  0-Ir, 27-C ) :   1.8767
B(  0-Ir, 28-O ) :   0.1182 B(  0-Ir, 29-Cl) :   0.3148 B(  1-P ,  2-C ) :   0.3322
B(  1-P ,  3-C ) :   0.5331 B(  1-P ,  6-H ) :  -0.1058 B(  1-P ,  7-H ) :  -0.1057
B(  1-P ,  8-H ) :  -0.1067 B(  1-P , 10-C ) :   0.5322 B(  1-P , 13-H ) :  -0.1067
B(  1-P , 29-Cl) :   0.2434 B(  2-C ,  8-H ) :   0.8575 B(  2-C , 11-H ) :   0.6588
B(  2-C , 13-H ) :   0.8583 B(  3-C ,  4-H ) :   0.6919 B(  3-C ,  6-H ) :   0.8070
B(  3-C ,  9-H ) :   0.8175 B(  4-H ,  9-H ) :   0.1153 B(  5-H , 10-C ) :   0.6925
B(  5-H , 12-H ) :   0.1151 B(  7-H , 10-C ) :   0.8078 B(  8-H , 11-H ) :   0.1015
B( 10-C , 12-H ) :   0.8180 B( 11-H , 13-H ) :   0.1016 B( 14-P , 15-C ) :   0.3320
B( 14-P , 16-C ) :   0.5321 B( 14-P , 17-H ) :  -0.1059 B( 14-P , 20-C ) :   0.5331
B( 14-P , 21-H ) :  -0.1058 B( 14-P , 24-H ) :  -0.1064 B( 14-P , 26-H ) :  -0.1071
B( 14-P , 29-Cl) :   0.2430 B( 15-C , 23-H ) :   0.6588 B( 15-C , 24-H ) :   0.8584
B( 15-C , 26-H ) :   0.8579 B( 16-C , 21-H ) :   0.8091 B( 16-C , 22-H ) :   0.6926
B( 16-C , 25-H ) :   0.8177 B( 17-H , 20-C ) :   0.8062 B( 18-H , 19-H ) :   0.1151
B( 18-H , 20-C ) :   0.6919 B( 19-H , 20-C ) :   0.8178 B( 22-H , 25-H ) :   0.1152
B( 23-H , 24-H ) :   0.1013 B( 23-H , 26-H ) :   0.1017 B( 27-C , 28-O ) :   1.5840

Dispersion correction           -0.005113358
FINAL SINGLE POINT ENERGY     -1600.162082169261

DIPOLE MOMENT
-------------
                                X             Y             Z
Electronic contribution:      0.00106      16.07702      -0.17783
Nuclear contribution   :     -0.00090     -15.69990       0.18198
                        -----------------------------------------
Total Dipole Moment    :      0.00016       0.37712       0.00414
                        -----------------------------------------
Magnitude (a.u.)       :      0.37714
Magnitude (Debye)      :      0.95861

Rotational constants in cm-1:     0.025294     0.012430     0.009680
Rotational constants in MHz :   758.298673   372.651784   290.199928

                             ****ORCA TERMINATED NORMALLY****
TOTAL RUN TIME: 0 days 0 hours 6 minutes 53 seconds 771 msec
