                         Program Version 4.2.0 -  RELEASE  -
|  1> #
|  2> # MOR15_ed28 M06-D3/Def2-TZVPPD
|  3> #
|  4> ! m06 d3zero def2-tzvppd def2/jk grid4 nofinalgrid
|  5>
|  6> *xyz 0 1
|  7> P        2.231289   -0.430274   -0.463190
|  8> P       -2.231227    0.430230   -0.463237
|  9> C        0.601806    0.475539   -0.398801
| 10> C       -0.601746   -0.475582   -0.398812
| 11> H        0.558406    1.125089   -1.282007
| 12> H        0.584231    1.127683    0.485308
| 13> H       -0.558397   -1.125071   -1.282069
| 14> H       -0.584133   -1.127767    0.485258
| 15> C       -2.297387    1.057835    1.283006
| 16> H       -3.294023    1.464895    1.482076
| 17> H       -1.575039    1.869076    1.414857
| 18> H       -2.084239    0.266904    2.013068
| 19> C       -3.365229   -1.028103   -0.282748
| 20> H       -3.089031   -1.663694    0.567640
| 21> H       -3.336618   -1.627593   -1.198231
| 22> H       -4.392612   -0.676718   -0.143291
| 23> C        3.365219    1.028123   -0.282780
| 24> H        4.392633    0.676869   -0.143242
| 25> H        3.088901    1.663766    0.567523
| 26> H        3.336575    1.627522   -1.198328
| 27> C        2.297280   -1.057763    1.283073
| 28> H        1.574883   -1.868971    1.414841
| 29> H        2.084009   -0.266765    2.013028
| 30> H        3.293857   -1.464863    1.482348
| 31> *
| 32>
| 33> %maxcore 5000
| 34>
| 35> %pal
| 36> nprocs = 24
| 37> end
| 38>
| 39>
| 40>                          ****END OF INPUT****

CARTESIAN COORDINATES (ANGSTROEM)
---------------------------------
  P      2.231289   -0.430274   -0.463190
  P     -2.231227    0.430230   -0.463237
  C      0.601806    0.475539   -0.398801
  C     -0.601746   -0.475582   -0.398812
  H      0.558406    1.125089   -1.282007
  H      0.584231    1.127683    0.485308
  H     -0.558397   -1.125071   -1.282069
  H     -0.584133   -1.127767    0.485258
  C     -2.297387    1.057835    1.283006
  H     -3.294023    1.464895    1.482076
  H     -1.575039    1.869076    1.414857
  H     -2.084239    0.266904    2.013068
  C     -3.365229   -1.028103   -0.282748
  H     -3.089031   -1.663694    0.567640
  H     -3.336618   -1.627593   -1.198231
  H     -4.392612   -0.676718   -0.143291
  C      3.365219    1.028123   -0.282780
  H      4.392633    0.676869   -0.143242
  H      3.088901    1.663766    0.567523
  H      3.336575    1.627522   -1.198328
  C      2.297280   -1.057763    1.283073
  H      1.574883   -1.868971    1.414841
  H      2.084009   -0.266765    2.013028
  H      3.293857   -1.464863    1.482348

 Total Charge           Charge          ....    0
 Multiplicity           Mult            ....    1
 Number of Electrons    NEL             ....   82
 Basis Dimension        Dim             ....  590

ORBITAL ENERGIES
----------------

  NO   OCC          E(Eh)            E(eV)
   0   2.0000     -77.210394     -2101.0016
   1   2.0000     -77.210391     -2101.0016
   2   2.0000     -10.238597      -278.6064
   3   2.0000     -10.238358      -278.5999
   4   2.0000     -10.229221      -278.3513
   5   2.0000     -10.229221      -278.3512
   6   2.0000     -10.228812      -278.3401
   7   2.0000     -10.228810      -278.3401
   8   2.0000      -6.637000      -180.6020
   9   2.0000      -6.636998      -180.6019
  10   2.0000      -4.758140      -129.4756
  11   2.0000      -4.758139      -129.4755
  12   2.0000      -4.758030      -129.4726
  13   2.0000      -4.758029      -129.4725
  14   2.0000      -4.753164      -129.3402
  15   2.0000      -4.753162      -129.3401
  16   2.0000      -0.797375       -21.6977
  17   2.0000      -0.758639       -20.6436
  18   2.0000      -0.728210       -19.8156
  19   2.0000      -0.698212       -18.9993
  20   2.0000      -0.697959       -18.9924
  21   2.0000      -0.637247       -17.3404
  22   2.0000      -0.542112       -14.7516
  23   2.0000      -0.536154       -14.5895
  24   2.0000      -0.474127       -12.9016
  25   2.0000      -0.442759       -12.0481
  26   2.0000      -0.438838       -11.9414
  27   2.0000      -0.437353       -11.9010
  28   2.0000      -0.433035       -11.7835
  29   2.0000      -0.411516       -11.1979
  30   2.0000      -0.409937       -11.1549
  31   2.0000      -0.409291       -11.1374
  32   2.0000      -0.408331       -11.1113
  33   2.0000      -0.386655       -10.5214
  34   2.0000      -0.375593       -10.2204
  35   2.0000      -0.365851        -9.9553
  36   2.0000      -0.333447        -9.0735
  37   2.0000      -0.331407        -9.0180
  38   2.0000      -0.300838        -8.1862
  39   2.0000      -0.238225        -6.4824
  40   2.0000      -0.235187        -6.3998
  41   0.0000      -0.020597        -0.5605
  42   0.0000      -0.013333        -0.3628
  43   0.0000      -0.008520        -0.2318
  44   0.0000      -0.004617        -0.1256
  45   0.0000       0.005733         0.1560

MULLIKEN ATOMIC CHARGES
-----------------------
   0 P :    0.029257
   1 P :    0.029309
   2 C :   -0.867019
   3 C :   -0.867259
   4 H :    0.673487
   5 H :    0.320809
   6 H :    0.673509
   7 H :    0.320920
   8 C :   -1.598662
   9 H :    0.610083
  10 H :    0.459428
  11 H :    0.447605
  12 C :   -1.699184
  13 H :    0.474446
  14 H :    0.571659
  15 H :    0.578099
  16 C :   -1.699166
  17 H :    0.578109
  18 H :    0.474445
  19 H :    0.571638
  20 C :   -1.598486
  21 H :    0.459319
  22 H :    0.447591
  23 H :    0.610064
Sum of atomic charges:   -0.0000000

LOEWDIN ATOMIC CHARGES
----------------------
   0 P :    0.924444
   1 P :    0.924451
   2 C :   -0.310380
   3 C :   -0.310377
   4 H :   -0.030503
   5 H :   -0.035091
   6 H :   -0.030504
   7 H :   -0.035094
   8 C :   -0.090040
   9 H :   -0.062153
  10 H :   -0.068353
  11 H :   -0.052143
  12 C :   -0.095994
  13 H :   -0.055446
  14 H :   -0.062005
  15 H :   -0.062340
  16 C :   -0.095990
  17 H :   -0.062339
  18 H :   -0.055453
  19 H :   -0.062000
  20 C :   -0.090048
  21 H :   -0.068357
  22 H :   -0.052140
  23 H :   -0.062146

  Mayer bond orders larger than 0.100000
B(  0-P ,  2-C ) :   0.5171 B(  0-P ,  3-C ) :   0.3214 B(  0-P , 16-C ) :   0.8278
B(  0-P , 20-C ) :   0.7243 B(  1-P ,  2-C ) :   0.3215 B(  1-P ,  3-C ) :   0.5170
B(  1-P ,  8-C ) :   0.7243 B(  1-P , 12-C ) :   0.8278 B(  2-C ,  3-C ) :  -0.1063
B(  2-C ,  4-H ) :   0.4992 B(  2-C ,  5-H ) :   0.7503 B(  3-C ,  6-H ) :   0.4992
B(  3-C ,  7-H ) :   0.7502 B(  4-H ,  5-H ) :   0.3041 B(  6-H ,  7-H ) :   0.3042
B(  8-C ,  9-H ) :   0.6859 B(  8-C , 10-H ) :   0.8133 B(  8-C , 11-H ) :   0.8207
B( 10-H , 11-H ) :   0.1040 B( 12-C , 13-H ) :   0.7831 B( 12-C , 14-H ) :   0.7537
B( 12-C , 15-H ) :   0.7475 B( 16-C , 17-H ) :   0.7475 B( 16-C , 18-H ) :   0.7830
B( 16-C , 19-H ) :   0.7537 B( 20-C , 21-H ) :   0.8134 B( 20-C , 22-H ) :   0.8207
B( 20-C , 23-H ) :   0.6859 B( 21-H , 22-H ) :   0.1040

Dispersion correction           -0.002708812
FINAL SINGLE POINT ENERGY      -920.876091960847

DIPOLE MOMENT
-------------
                                X             Y             Z
Electronic contribution:      0.00066      -0.00041      -7.13786
Nuclear contribution   :     -0.00067       0.00041       7.75547
                        -----------------------------------------
Total Dipole Moment    :     -0.00001       0.00000       0.61761
                        -----------------------------------------
Magnitude (a.u.)       :      0.61761
Magnitude (Debye)      :      1.56984

Rotational constants in cm-1:     0.093884     0.018404     0.018105
Rotational constants in MHz :  2814.581921   551.745538   542.775536

                             ****ORCA TERMINATED NORMALLY****
TOTAL RUN TIME: 0 days 0 hours 1 minutes 43 seconds 38 msec
