                         Program Version 4.2.0 -  RELEASE  -
|  1> #
|  2> # MOR11_ed11 M06-D3/Def2-TZVPPD
|  3> #
|  4> ! m06 d3zero def2-tzvppd def2/jk grid4 nofinalgrid
|  5>
|  6> *xyz 0 1
|  7> C       -0.215143    2.474912    0.000943
|  8> C        0.405007    3.719049    0.001069
|  9> C        1.797844    3.776033    0.000678
| 10> C        2.518886    2.587780    0.000166
| 11> H       -1.296303    2.357179    0.001183
| 12> H       -0.198474    4.620568    0.001502
| 13> H        2.316345    4.729851    0.000789
| 14> H        3.602578    2.611029   -0.000041
| 15> N        0.477795    1.324684    0.000439
| 16> C        1.835277    1.367244    0.000057
| 17> C        2.509992    0.059887   -0.000357
| 18> N        1.694840   -1.036421    0.000876
| 19> C        2.257001   -2.260308    0.000535
| 20> C        4.472096   -1.347919   -0.002398
| 21> C        3.629983   -2.459360   -0.001050
| 22> H        1.562821   -3.092687    0.001515
| 23> H        4.023772   -3.470102   -0.001337
| 24> C        3.900751   -0.081941   -0.002040
| 25> H        4.532932    0.798314   -0.003223
| 26> H        5.551118   -1.464051   -0.003853
| 27> Pd      -0.336917   -0.654572    0.001071
| 28> C       -0.858975   -2.626404    0.002691
| 29> H       -0.413078   -3.060930    0.907026
| 30> H       -0.415091   -3.062278   -0.901950
| 31> H       -1.933716   -2.807010    0.004117
| 32> I       -2.840745   -0.024929   -0.001244
| 33> *
| 34>
| 35> %maxcore 5000
| 36>
| 37> %pal
| 38> nprocs = 24
| 39> end
| 40>
| 41>
| 42>                          ****END OF INPUT****

CARTESIAN COORDINATES (ANGSTROEM)
---------------------------------
  C     -0.215143    2.474912    0.000943
  C      0.405007    3.719049    0.001069
  C      1.797844    3.776033    0.000678
  C      2.518886    2.587780    0.000166
  H     -1.296303    2.357179    0.001183
  H     -0.198474    4.620568    0.001502
  H      2.316345    4.729851    0.000789
  H      3.602578    2.611029   -0.000041
  N      0.477795    1.324684    0.000439
  C      1.835277    1.367244    0.000057
  C      2.509992    0.059887   -0.000357
  N      1.694840   -1.036421    0.000876
  C      2.257001   -2.260308    0.000535
  C      4.472096   -1.347919   -0.002398
  C      3.629983   -2.459360   -0.001050
  H      1.562821   -3.092687    0.001515
  H      4.023772   -3.470102   -0.001337
  C      3.900751   -0.081941   -0.002040
  H      4.532932    0.798314   -0.003223
  H      5.551118   -1.464051   -0.003853
  Pd    -0.336917   -0.654572    0.001071
  C     -0.858975   -2.626404    0.002691
  H     -0.413078   -3.060930    0.907026
  H     -0.415091   -3.062278   -0.901950
  H     -1.933716   -2.807010    0.004117
  I     -2.840745   -0.024929   -0.001244

 Total Charge           Charge          ....    0
 Multiplicity           Mult            ....    1
 Number of Electrons    NEL             ....  134
 Basis Dimension        Dim             ....  783

ORBITAL ENERGIES
----------------

  NO   OCC          E(Eh)            E(eV)
   0   2.0000     -14.456103      -393.3706
   1   2.0000     -14.440621      -392.9493
   2   2.0000     -10.328605      -281.0556
   3   2.0000     -10.323159      -280.9074
   4   2.0000     -10.310770      -280.5703
   5   2.0000     -10.299948      -280.2758
   6   2.0000     -10.295048      -280.1425
   7   2.0000     -10.289677      -279.9963
   8   2.0000     -10.288937      -279.9762
   9   2.0000     -10.284535      -279.8564
  10   2.0000     -10.283780      -279.8359
  11   2.0000     -10.276654      -279.6420
  12   2.0000     -10.200531      -277.5706
  13   2.0000      -6.776752      -184.4048
  14   2.0000      -4.816101      -131.0528
  15   2.0000      -4.809098      -130.8622
  16   2.0000      -4.808464      -130.8450
  17   2.0000      -3.435587       -93.4871
  18   2.0000      -2.138539       -58.1926
  19   2.0000      -2.134062       -58.0708
  20   2.0000      -2.111433       -57.4550
  21   2.0000      -1.880322       -51.1662
  22   2.0000      -1.878430       -51.1147
  23   2.0000      -1.878033       -51.1039
  24   2.0000      -1.872120       -50.9430
  25   2.0000      -1.872113       -50.9428
  26   2.0000      -1.013119       -27.5684
  27   2.0000      -0.986406       -26.8415
  28   2.0000      -0.859578       -23.3903
  29   2.0000      -0.848885       -23.0993
  30   2.0000      -0.843906       -22.9639
  31   2.0000      -0.788771       -21.4635
  32   2.0000      -0.706338       -19.2204
  33   2.0000      -0.696548       -18.9540
  34   2.0000      -0.664382       -18.0787
  35   2.0000      -0.657390       -17.8885
  36   2.0000      -0.650259       -17.6944
  37   2.0000      -0.619317       -16.8525
  38   2.0000      -0.590867       -16.0783
  39   2.0000      -0.551645       -15.0110
  40   2.0000      -0.549820       -14.9613
  41   2.0000      -0.526711       -14.3325
  42   2.0000      -0.514640       -14.0041
  43   2.0000      -0.488221       -13.2852
  44   2.0000      -0.479174       -13.0390
  45   2.0000      -0.478695       -13.0259
  46   2.0000      -0.470214       -12.7952
  47   2.0000      -0.459050       -12.4914
  48   2.0000      -0.442396       -12.0382
  49   2.0000      -0.423503       -11.5241
  50   2.0000      -0.410860       -11.1801
  51   2.0000      -0.389187       -10.5903
  52   2.0000      -0.387744       -10.5511
  53   2.0000      -0.376442       -10.2435
  54   2.0000      -0.373052       -10.1513
  55   2.0000      -0.354359        -9.6426
  56   2.0000      -0.341932        -9.3044
  57   2.0000      -0.337924        -9.1954
  58   2.0000      -0.286764        -7.8032
  59   2.0000      -0.275457        -7.4956
  60   2.0000      -0.271402        -7.3852
  61   2.0000      -0.269487        -7.3331
  62   2.0000      -0.258507        -7.0343
  63   2.0000      -0.248395        -6.7592
  64   2.0000      -0.230278        -6.2662
  65   2.0000      -0.203712        -5.5433
  66   2.0000      -0.201566        -5.4849
  67   0.0000      -0.097731        -2.6594
  68   0.0000      -0.067536        -1.8378
  69   0.0000      -0.053659        -1.4601
  70   0.0000      -0.046480        -1.2648
  71   0.0000      -0.034974        -0.9517

MULLIKEN ATOMIC CHARGES
-----------------------
   0 C :    0.201587
   1 C :   -0.711637
   2 C :   -0.526814
   3 C :   -0.832910
   4 H :   -0.060514
   5 H :    0.503803
   6 H :    0.518925
   7 H :    0.244504
   8 N :    0.115071
   9 C :    0.980736
  10 C :    0.347345
  11 N :    0.263418
  12 C :   -0.339327
  13 C :   -0.537105
  14 C :   -0.637286
  15 H :    0.405269
  16 H :    0.504795
  17 C :   -0.823893
  18 H :    0.235653
  19 H :    0.524612
  20 Pd:    0.093873
  21 C :   -1.353987
  22 H :    0.350103
  23 H :    0.351362
  24 H :    0.543449
  25 I :   -0.361032
Sum of atomic charges:    0.0000000

LOEWDIN ATOMIC CHARGES
----------------------
   0 C :   -0.054865
   1 C :    0.055680
   2 C :    0.046839
   3 C :    0.074015
   4 H :   -0.090560
   5 H :    0.010592
   6 H :    0.013206
   7 H :    0.001762
   8 N :   -0.012060
   9 C :   -0.171934
  10 C :   -0.157727
  11 N :    0.001631
  12 C :   -0.014483
  13 C :    0.049368
  14 C :    0.055489
  15 H :   -0.009307
  16 H :    0.010959
  17 C :    0.076040
  18 H :    0.003297
  19 H :    0.014113
  20 Pd:    0.406984
  21 C :   -0.074732
  22 H :   -0.105990
  23 H :   -0.105957
  24 H :   -0.165688
  25 I :    0.143328

  Mayer bond orders larger than 0.100000
B(  0-C ,  1-C ) :   1.1325 B(  0-C ,  3-C ) :  -0.1266 B(  0-C ,  4-H ) :   0.8471
B(  0-C ,  8-N ) :   1.7142 B(  0-C ,  9-C ) :  -0.1021 B(  0-C , 20-Pd) :  -0.1003
B(  0-C , 25-I ) :  -0.1517 B(  1-C ,  2-C ) :   0.8447 B(  1-C ,  5-H ) :   0.7635
B(  1-C ,  8-N ) :  -0.2057 B(  1-C , 20-Pd) :   0.1509 B(  2-C ,  3-C ) :   0.8340
B(  2-C ,  6-H ) :   0.8066 B(  2-C ,  8-N ) :   0.1885 B(  3-C ,  7-H ) :   1.2639
B(  3-C ,  8-N ) :  -0.2988 B(  3-C ,  9-C ) :   0.2853 B(  3-C , 10-C ) :  -0.5084
B(  3-C , 17-C ) :  -0.1683 B(  3-C , 20-Pd) :   0.2711 B(  4-H ,  8-N ) :  -0.1607
B(  4-H ,  9-C ) :   0.1189 B(  4-H , 25-I ) :   0.3236 B(  7-H ,  9-C ) :  -0.3818
B(  7-H , 10-C ) :   0.1810 B(  8-N ,  9-C ) :   1.6496 B(  8-N , 10-C ) :  -0.1543
B(  8-N , 20-Pd) :   0.1236 B(  9-C , 10-C ) :   0.5187 B(  9-C , 11-N ) :  -0.5875
B(  9-C , 17-C ) :  -0.7225 B(  9-C , 18-H ) :   0.1831 B(  9-C , 25-I ) :   0.1579
B( 10-C , 11-N ) :   2.0440 B( 10-C , 13-C ) :  -0.1433 B( 10-C , 17-C ) :   0.3607
B( 10-C , 18-H ) :  -0.4403 B( 10-C , 20-Pd) :   0.1651 B( 10-C , 25-I ) :  -0.1771
B( 11-N , 12-C ) :   1.8287 B( 11-N , 13-C ) :   0.2510 B( 11-N , 14-C ) :  -0.1666
B( 11-N , 17-C ) :  -0.2903 B( 11-N , 20-Pd) :   0.1769 B( 12-C , 14-C ) :   1.0548
B( 12-C , 15-H ) :   0.8907 B( 12-C , 17-C ) :  -0.1186 B( 13-C , 14-C ) :   0.8567
B( 13-C , 17-C ) :   0.8649 B( 13-C , 19-H ) :   0.7928 B( 14-C , 16-H ) :   0.7870
B( 14-C , 20-Pd) :   0.1219 B( 17-C , 18-H ) :   1.2676 B( 17-C , 20-Pd) :   0.2408
B( 20-Pd, 21-C ) :   0.5676 B( 20-Pd, 25-I ) :   0.8263 B( 21-C , 22-H ) :   0.9897
B( 21-C , 23-H ) :   0.9893 B( 21-C , 24-H ) :   0.7292

Dispersion correction           -0.004133797
FINAL SINGLE POINT ENERGY      -960.871416268941

DIPOLE MOMENT
-------------
                                X             Y             Z
Electronic contribution:   -214.71994     -39.90654      -0.01944
Nuclear contribution   :    218.94043      41.00073       0.01934
                        -----------------------------------------
Total Dipole Moment    :      4.22049       1.09419      -0.00010
                        -----------------------------------------
Magnitude (a.u.)       :      4.36002
Magnitude (Debye)      :     11.08229

Rotational constants in cm-1:     0.017794     0.008244     0.005640
Rotational constants in MHz :   533.441148   247.152748   169.085365

                             ****ORCA TERMINATED NORMALLY****
TOTAL RUN TIME: 0 days 0 hours 12 minutes 33 seconds 578 msec
