                         Program Version 4.2.0 -  RELEASE  -
|  1> #
|  2> # MOR17_ed36 M06-D3/Def2-TZVPPD
|  3> #
|  4> ! m06 d3zero def2-tzvppd def2/jk grid4 nofinalgrid
|  5>
|  6> *xyz 0 1
|  7> Mo      -0.000266    0.073285   -0.001759
|  8> C        1.725893   -0.773990   -1.226681
|  9> C        2.211696    0.414668   -0.610995
| 10> C        2.192326    0.250811    0.809261
| 11> C        1.685230   -1.035926    1.105715
| 12> C        1.413513   -1.680058   -0.153190
| 13> H        1.704188   -0.987838   -2.284881
| 14> H        2.536107    1.301869   -1.133102
| 15> H        2.493190    0.988099    1.537778
| 16> H        1.573828   -1.467340    2.089978
| 17> H        1.067801   -2.694661   -0.276651
| 18> C       -1.407221   -1.685804    0.112781
| 19> C       -1.709531   -0.814976    1.218351
| 20> C       -2.202710    0.272498   -0.775202
| 21> C       -1.695077   -1.002456   -1.122045
| 22> H       -1.669608   -1.061100    2.269076
| 23> H       -2.528690    1.258371    1.205067
| 24> C       -2.207491    0.390536    0.649493
| 25> H       -1.601566   -1.403288   -2.120864
| 26> H       -1.058155   -2.702954    0.200059
| 27> C        0.040880    2.214506    0.720862
| 28> H        0.978366    2.504794    1.184780
| 29> H       -0.817411    2.527371    1.307308
| 30> C       -0.044841    2.215313   -0.718681
| 31> H        0.814149    2.526211   -1.305102
| 32> H       -0.980875    2.509977   -1.182445
| 33> H       -2.516160    1.031799   -1.475134
| 34> *
| 35>
| 36> %maxcore 5000
| 37>
| 38> %pal
| 39> nprocs = 24
| 40> end
| 41>
| 42>
| 43>                          ****END OF INPUT****

CARTESIAN COORDINATES (ANGSTROEM)
---------------------------------
  Mo    -0.000266    0.073285   -0.001759
  C      1.725893   -0.773990   -1.226681
  C      2.211696    0.414668   -0.610995
  C      2.192326    0.250811    0.809261
  C      1.685230   -1.035926    1.105715
  C      1.413513   -1.680058   -0.153190
  H      1.704188   -0.987838   -2.284881
  H      2.536107    1.301869   -1.133102
  H      2.493190    0.988099    1.537778
  H      1.573828   -1.467340    2.089978
  H      1.067801   -2.694661   -0.276651
  C     -1.407221   -1.685804    0.112781
  C     -1.709531   -0.814976    1.218351
  C     -2.202710    0.272498   -0.775202
  C     -1.695077   -1.002456   -1.122045
  H     -1.669608   -1.061100    2.269076
  H     -2.528690    1.258371    1.205067
  C     -2.207491    0.390536    0.649493
  H     -1.601566   -1.403288   -2.120864
  H     -1.058155   -2.702954    0.200059
  C      0.040880    2.214506    0.720862
  H      0.978366    2.504794    1.184780
  H     -0.817411    2.527371    1.307308
  C     -0.044841    2.215313   -0.718681
  H      0.814149    2.526211   -1.305102
  H     -0.980875    2.509977   -1.182445
  H     -2.516160    1.031799   -1.475134

 Total Charge           Charge          ....    0
 Multiplicity           Mult            ....    1
 Number of Electrons    NEL             ....  100
 Basis Dimension        Dim             ....  738

ORBITAL ENERGIES
----------------

  NO   OCC          E(Eh)            E(eV)
   0   2.0000     -10.251641      -278.9613
   1   2.0000     -10.251535      -278.9584
   2   2.0000     -10.251030      -278.9447
   3   2.0000     -10.250828      -278.9392
   4   2.0000     -10.250286      -278.9245
   5   2.0000     -10.249598      -278.9057
   6   2.0000     -10.249320      -278.8982
   7   2.0000     -10.249189      -278.8946
   8   2.0000     -10.246705      -278.8270
   9   2.0000     -10.246221      -278.8139
  10   2.0000     -10.207901      -277.7711
  11   2.0000     -10.207369      -277.7566
  12   2.0000      -2.535200       -68.9863
  13   2.0000      -1.571912       -42.7739
  14   2.0000      -1.548682       -42.1418
  15   2.0000      -1.525512       -41.5113
  16   2.0000      -0.902604       -24.5611
  17   2.0000      -0.886510       -24.1232
  18   2.0000      -0.740052       -20.1378
  19   2.0000      -0.728931       -19.8352
  20   2.0000      -0.725393       -19.7389
  21   2.0000      -0.725347       -19.7377
  22   2.0000      -0.721640       -19.6368
  23   2.0000      -0.581512       -15.8238
  24   2.0000      -0.566896       -15.4260
  25   2.0000      -0.554300       -15.0833
  26   2.0000      -0.553154       -15.0521
  27   2.0000      -0.551367       -15.0035
  28   2.0000      -0.550383       -14.9767
  29   2.0000      -0.541160       -14.7257
  30   2.0000      -0.447276       -12.1710
  31   2.0000      -0.431350       -11.7376
  32   2.0000      -0.423999       -11.5376
  33   2.0000      -0.418238       -11.3808
  34   2.0000      -0.416520       -11.3341
  35   2.0000      -0.413439       -11.2502
  36   2.0000      -0.410317       -11.1653
  37   2.0000      -0.395781       -10.7698
  38   2.0000      -0.394482       -10.7344
  39   2.0000      -0.391838       -10.6625
  40   2.0000      -0.389302       -10.5935
  41   2.0000      -0.378890       -10.3101
  42   2.0000      -0.343056        -9.3350
  43   2.0000      -0.289091        -7.8666
  44   2.0000      -0.287426        -7.8213
  45   2.0000      -0.279077        -7.5941
  46   2.0000      -0.270272        -7.3545
  47   2.0000      -0.268582        -7.3085
  48   2.0000      -0.200395        -5.4530
  49   2.0000      -0.168321        -4.5802
  50   0.0000      -0.027825        -0.7572
  51   0.0000      -0.018090        -0.4923
  52   0.0000      -0.015815        -0.4303
  53   0.0000      -0.014151        -0.3851
  54   0.0000      -0.000625        -0.0170

MULLIKEN ATOMIC CHARGES
-----------------------
   0 Mo:    0.057951
   1 C :   -0.608796
   2 C :   -0.987679
   3 C :   -0.892392
   4 C :   -0.507308
   5 C :   -0.916714
   6 H :    0.559351
   7 H :    1.017304
   8 H :    0.772571
   9 H :    0.605390
  10 H :    0.936583
  11 C :   -0.907803
  12 C :   -0.610539
  13 C :   -0.902321
  14 C :   -0.509078
  15 H :    0.557499
  16 H :    0.992532
  17 C :   -0.979472
  18 H :    0.583157
  19 H :    0.945742
  20 C :   -0.985153
  21 H :    0.514833
  22 H :    0.485736
  23 C :   -1.016800
  24 H :    0.475184
  25 H :    0.519499
  26 H :    0.800726
Sum of atomic charges:    0.0000000

LOEWDIN ATOMIC CHARGES
----------------------
   0 Mo:    1.088259
   1 C :   -0.069283
   2 C :   -0.085218
   3 C :   -0.075184
   4 C :   -0.063698
   5 C :   -0.092619
   6 H :   -0.000472
   7 H :    0.003713
   8 H :    0.003548
   9 H :    0.004760
  10 H :   -0.002731
  11 C :   -0.092973
  12 C :   -0.069627
  13 C :   -0.076266
  14 C :   -0.063971
  15 H :   -0.000017
  16 H :    0.003702
  17 C :   -0.082943
  18 H :    0.003935
  19 H :   -0.002916
  20 C :   -0.038320
  21 H :   -0.063361
  22 H :   -0.063969
  23 C :   -0.039414
  24 H :   -0.064287
  25 H :   -0.063939
  26 H :    0.003291

  Mayer bond orders larger than 0.100000
B(  0-Mo,  2-C ) :   0.6705 B(  0-Mo,  3-C ) :   0.3619 B(  0-Mo,  5-C ) :   0.8165
B(  0-Mo, 11-C ) :   0.8150 B(  0-Mo, 13-C ) :   0.4024 B(  0-Mo, 17-C ) :   0.6285
B(  0-Mo, 20-C ) :   0.5862 B(  0-Mo, 23-C ) :   0.5954 B(  1-C ,  2-C ) :   0.9095
B(  1-C ,  5-C ) :   0.9892 B(  1-C ,  6-H ) :   0.8244 B(  1-C ,  7-H ) :  -0.1456
B(  1-C , 11-C ) :  -0.1713 B(  1-C , 12-C ) :   0.3095 B(  1-C , 14-C ) :   0.3430
B(  1-C , 17-C ) :  -0.2676 B(  1-C , 23-C ) :   0.1365 B(  2-C ,  3-C ) :   1.1562
B(  2-C ,  7-H ) :   0.1007 B(  2-C , 11-C ) :   0.1436 B(  2-C , 12-C ) :  -0.2975
B(  2-C , 14-C ) :  -0.2653 B(  2-C , 17-C ) :   0.2404 B(  2-C , 20-C ) :  -0.1528
B(  3-C ,  4-C ) :   0.7916 B(  3-C ,  8-H ) :   0.4821 B(  3-C ,  9-H ) :  -0.1056
B(  3-C , 23-C ) :  -0.1221 B(  4-C ,  5-C ) :   0.9366 B(  4-C ,  9-H ) :   0.7863
B(  4-C , 11-C ) :  -0.1821 B(  4-C , 12-C ) :   0.3148 B(  4-C , 14-C ) :   0.1491
B(  4-C , 17-C ) :  -0.2281 B(  5-C , 10-H ) :   0.2038 B(  5-C , 11-C ) :   0.2631
B(  5-C , 12-C ) :  -0.1725 B(  5-C , 14-C ) :  -0.1717 B(  5-C , 17-C ) :   0.1294
B(  5-C , 23-C ) :  -0.1073 B( 11-C , 12-C ) :   1.0131 B( 11-C , 14-C ) :   0.9334
B( 11-C , 19-H ) :   0.1939 B( 11-C , 20-C ) :  -0.1103 B( 12-C , 15-H ) :   0.8253
B( 12-C , 16-H ) :  -0.1355 B( 12-C , 17-C ) :   0.8931 B( 12-C , 20-C ) :   0.1262
B( 13-C , 14-C ) :   0.7821 B( 13-C , 17-C ) :   1.1658 B( 13-C , 18-H ) :  -0.1047
B( 13-C , 20-C ) :  -0.1226 B( 13-C , 26-H ) :   0.4414 B( 14-C , 18-H ) :   0.8165
B( 16-H , 17-C ) :   0.1390 B( 17-C , 23-C ) :  -0.1454 B( 20-C , 21-H ) :   0.8264
B( 20-C , 22-H ) :   0.8347 B( 20-C , 23-C ) :   0.6853 B( 23-C , 24-H ) :   0.8566
B( 23-C , 25-H ) :   0.8207

Dispersion correction           -0.004102702
FINAL SINGLE POINT ENERGY      -533.715972975397

DIPOLE MOMENT
-------------
                                X             Y             Z
Electronic contribution:     -0.01322       0.81382      -0.10878
Nuclear contribution   :      0.01285      -1.32377       0.12031
                        -----------------------------------------
Total Dipole Moment    :     -0.00038      -0.50995       0.01153
                        -----------------------------------------
Magnitude (a.u.)       :      0.51008
Magnitude (Debye)      :      1.29651

Rotational constants in cm-1:     0.040116     0.028148     0.022583
Rotational constants in MHz :  1202.641010   843.851559   677.032187

                             ****ORCA TERMINATED NORMALLY****
TOTAL RUN TIME: 0 days 0 hours 6 minutes 37 seconds 949 msec
