                         Program Version 4.2.0 -  RELEASE  -
|  1> #
|  2> # MOR18_ed37 M06-D3/Def2-TZVPPD
|  3> #
|  4> ! m06 d3zero def2-tzvppd def2/jk grid4 nofinalgrid
|  5>
|  6> *xyz 0 1
|  7> Mo      -0.098072   -0.000113   -0.000040
|  8> O       -1.958568   -1.162297    2.254949
|  9> C       -1.292076   -0.726548    1.409379
| 10> C       -1.290510    1.584735   -0.075353
| 11> O       -1.955816    2.535729   -0.120716
| 12> C       -1.292074   -0.856985   -1.334180
| 13> O       -1.958517   -1.371361   -2.134397
| 14> C        1.772262   -1.255233   -0.664863
| 15> C        1.773533   -1.210923    0.743855
| 16> C        1.772126    0.051067    1.419259
| 17> C        1.773764    1.248901    0.676519
| 18> C        1.772513    1.202801   -0.754108
| 19> C        1.773865   -0.039338   -1.420099
| 20> H        1.752441   -2.209415   -1.178166
| 21> H        1.754475   -2.130485    1.316775
| 22> H        1.752160    0.083668    2.502258
| 23> H        1.754801    2.204840    1.186440
| 24> H        1.752821    2.124408   -1.323840
| 25> H        1.755108   -0.075692   -2.502938
| 26> *
| 27>
| 28> %maxcore 5000
| 29>
| 30> %pal
| 31> nprocs = 24
| 32> end
| 33>
| 34>
| 35>                          ****END OF INPUT****

CARTESIAN COORDINATES (ANGSTROEM)
---------------------------------
  Mo    -0.098072   -0.000113   -0.000040
  O     -1.958568   -1.162297    2.254949
  C     -1.292076   -0.726548    1.409379
  C     -1.290510    1.584735   -0.075353
  O     -1.955816    2.535729   -0.120716
  C     -1.292074   -0.856985   -1.334180
  O     -1.958517   -1.371361   -2.134397
  C      1.772262   -1.255233   -0.664863
  C      1.773533   -1.210923    0.743855
  C      1.772126    0.051067    1.419259
  C      1.773764    1.248901    0.676519
  C      1.772513    1.202801   -0.754108
  C      1.773865   -0.039338   -1.420099
  H      1.752441   -2.209415   -1.178166
  H      1.754475   -2.130485    1.316775
  H      1.752160    0.083668    2.502258
  H      1.754801    2.204840    1.186440
  H      1.752821    2.124408   -1.323840
  H      1.755108   -0.075692   -2.502938

 Total Charge           Charge          ....    0
 Multiplicity           Mult            ....    1
 Number of Electrons    NEL             ....   98
 Basis Dimension        Dim             ....  611

ORBITAL ENERGIES
----------------

  NO   OCC          E(Eh)            E(eV)
   0   2.0000     -19.259203      -524.0696
   1   2.0000     -19.259193      -524.0693
   2   2.0000     -19.259145      -524.0680
   3   2.0000     -10.331901      -281.1453
   4   2.0000     -10.331882      -281.1448
   5   2.0000     -10.331867      -281.1444
   6   2.0000     -10.294920      -280.1390
   7   2.0000     -10.294715      -280.1334
   8   2.0000     -10.294705      -280.1332
   9   2.0000     -10.294052      -280.1154
  10   2.0000     -10.294045      -280.1152
  11   2.0000     -10.293860      -280.1102
  12   2.0000      -2.543827       -69.2210
  13   2.0000      -1.570225       -42.7280
  14   2.0000      -1.554506       -42.3003
  15   2.0000      -1.554499       -42.3001
  16   2.0000      -1.121009       -30.5042
  17   2.0000      -1.120431       -30.4885
  18   2.0000      -1.120426       -30.4883
  19   2.0000      -0.917269       -24.9602
  20   2.0000      -0.809010       -22.0143
  21   2.0000      -0.809004       -22.0141
  22   2.0000      -0.659480       -17.9454
  23   2.0000      -0.659456       -17.9447
  24   2.0000      -0.583247       -15.8709
  25   2.0000      -0.567539       -15.4435
  26   2.0000      -0.553809       -15.0699
  27   2.0000      -0.553803       -15.0697
  28   2.0000      -0.514472       -13.9995
  29   2.0000      -0.501545       -13.6477
  30   2.0000      -0.488038       -13.2802
  31   2.0000      -0.488018       -13.2797
  32   2.0000      -0.466902       -12.7051
  33   2.0000      -0.457647       -12.4532
  34   2.0000      -0.454547       -12.3689
  35   2.0000      -0.454524       -12.3682
  36   2.0000      -0.445058       -12.1107
  37   2.0000      -0.445046       -12.1103
  38   2.0000      -0.440249       -11.9798
  39   2.0000      -0.425224       -11.5709
  40   2.0000      -0.425194       -11.5701
  41   2.0000      -0.408983       -11.1290
  42   2.0000      -0.401245       -10.9184
  43   2.0000      -0.401207       -10.9174
  44   2.0000      -0.344845        -9.3837
  45   2.0000      -0.344834        -9.3834
  46   2.0000      -0.223740        -6.0883
  47   2.0000      -0.223722        -6.0878
  48   2.0000      -0.223707        -6.0874
  49   0.0000      -0.056659        -1.5418
  50   0.0000      -0.056646        -1.5414
  51   0.0000      -0.038066        -1.0358
  52   0.0000      -0.029328        -0.7981
  53   0.0000      -0.029221        -0.7951

MULLIKEN ATOMIC CHARGES
-----------------------
   0 Mo:    1.287162
   1 O :   -0.411756
   2 C :    0.018235
   3 C :    0.020827
   4 O :   -0.412126
   5 C :    0.014446
   6 O :   -0.411212
   7 C :   -0.523570
   8 C :   -0.547696
   9 C :   -0.500501
  10 C :   -0.559317
  11 C :   -0.520304
  12 C :   -0.536364
  13 H :    0.511746
  14 H :    0.512283
  15 H :    0.517430
  16 H :    0.508238
  17 H :    0.518560
  18 H :    0.513920
Sum of atomic charges:    0.0000000

LOEWDIN ATOMIC CHARGES
----------------------
   0 Mo:    0.702790
   1 O :    0.055864
   2 C :   -0.206750
   3 C :   -0.206852
   4 O :    0.055847
   5 C :   -0.206765
   6 O :    0.055876
   7 C :   -0.057280
   8 C :   -0.056022
   9 C :   -0.057276
  10 C :   -0.056132
  11 C :   -0.057251
  12 C :   -0.056087
  13 H :    0.015147
  14 H :    0.014861
  15 H :    0.015174
  16 H :    0.014811
  17 H :    0.015214
  18 H :    0.014830

  Mayer bond orders larger than 0.100000
B(  0-Mo,  2-C ) :   0.6658 B(  0-Mo,  3-C ) :   0.6705 B(  0-Mo,  5-C ) :   0.6592
B(  0-Mo,  7-C ) :   0.3134 B(  0-Mo,  8-C ) :   0.3189 B(  0-Mo,  9-C ) :   0.3085
B(  0-Mo, 10-C ) :   0.3234 B(  0-Mo, 11-C ) :   0.3160 B(  0-Mo, 12-C ) :   0.3159
B(  1-O ,  2-C ) :   1.5465 B(  3-C ,  4-O ) :   1.5471 B(  5-C ,  6-O ) :   1.5450
B(  7-C ,  8-C ) :   0.8750 B(  7-C ,  9-C ) :  -0.1040 B(  7-C , 11-C ) :  -0.1068
B(  7-C , 12-C ) :   0.7033 B(  7-C , 13-H ) :   0.9583 B(  8-C ,  9-C ) :   0.6956
B(  8-C , 14-H ) :   0.9561 B(  9-C , 10-C ) :   0.8621 B(  9-C , 11-C ) :  -0.1059
B(  9-C , 15-H ) :   0.9481 B( 10-C , 11-C ) :   0.7125 B( 10-C , 16-H ) :   0.9601
B( 11-C , 12-C ) :   0.8601 B( 11-C , 17-H ) :   0.9504 B( 12-C , 18-H ) :   0.9488

Dispersion correction           -0.002732464
FINAL SINGLE POINT ENERGY      -640.403955736826

DIPOLE MOMENT
-------------
                                X             Y             Z
Electronic contribution:    -11.12037      -0.00649      -0.00253
Nuclear contribution   :     13.46160       0.00506       0.00283
                        -----------------------------------------
Total Dipole Moment    :      2.34123      -0.00143       0.00030
                        -----------------------------------------
Magnitude (a.u.)       :      2.34123
Magnitude (Debye)      :      5.95092

Rotational constants in cm-1:     0.028916     0.021584     0.021580
Rotational constants in MHz :   866.875127   647.065472   646.965216

                             ****ORCA TERMINATED NORMALLY****
TOTAL RUN TIME: 0 days 0 hours 2 minutes 58 seconds 512 msec
