                         Program Version 4.2.0 -  RELEASE  -
|  1> #
|  2> # MOR14_ed26 M06-D3/Def2-TZVPPD
|  3> #
|  4> ! m06 d3zero def2-tzvppd def2/jk grid4 nofinalgrid
|  5>
|  6> *xyz 0 1
|  7> Ru      -0.064344   -0.175682   -0.012222
|  8> C        1.546320    1.136494   -0.983353
|  9> C        1.182588    1.622095    0.326342
| 10> C        2.076803   -0.497674    0.579629
| 11> C        2.043947   -0.183601   -0.846926
| 12> C        1.561141    0.611266    1.297590
| 13> C        1.492783    1.931783   -2.249249
| 14> H        0.696535    2.680581   -2.225612
| 15> H        1.338709    1.291322   -3.121811
| 16> H        2.442862    2.463439   -2.390633
| 17> C        2.565540   -1.075324   -1.928175
| 18> H        2.249514   -0.728507   -2.915600
| 19> H        2.192282   -2.094362   -1.786204
| 20> H        3.663236   -1.101421   -1.912436
| 21> C        2.692583   -1.723434    1.172166
| 22> H        3.783501   -1.598681    1.210971
| 23> H        2.457484   -2.606090    0.574387
| 24> H        2.333089   -1.899010    2.188816
| 25> C        1.552612    0.773239    2.786124
| 26> H        2.502734    1.205302    3.127194
| 27> H        1.421923   -0.187720    3.289969
| 28> H        0.754394    1.442873    3.118115
| 29> C        0.799428    3.031668    0.660505
| 30> H        1.693878    3.613580    0.920796
| 31> H        0.118442    3.075561    1.514596
| 32> H        0.315927    3.528553   -0.183556
| 33> Cl      -0.006885   -2.617235   -0.279085
| 34> C       -1.774511   -0.580489   -1.372668
| 35> C       -1.428717    0.775607   -1.463600
| 36> C       -2.230150    1.901113   -0.842184
| 37> C       -2.597560    1.596364    0.619137
| 38> C       -1.528383    0.747182    1.301561
| 39> C       -1.615603   -0.659023    1.435525
| 40> C       -2.738883   -1.472042    0.832207
| 41> C       -3.001399   -1.117797   -0.653050
| 42> H       -3.131417    2.097786   -1.444322
| 43> H       -3.561641    1.080890    0.673312
| 44> H       -1.631000    2.816891   -0.882167
| 45> H       -3.816216   -0.389170   -0.734954
| 46> H       -1.353755   -1.240657   -2.123162
| 47> H       -0.836828    1.063474   -2.328552
| 48> H       -3.337183   -2.018298   -1.174989
| 49> H       -2.460187   -2.525401    0.898608
| 50> H       -1.127422   -1.117347    2.293712
| 51> H       -3.660878   -1.338434    1.419672
| 52> H       -2.720080    2.533691    1.172959
| 53> H       -0.970929    1.269583    2.073632
| 54> *
| 55>
| 56> %maxcore 5000
| 57>
| 58> %pal
| 59> nprocs = 24
| 60> end
| 61>
| 62>
| 63>                          ****END OF INPUT****

CARTESIAN COORDINATES (ANGSTROEM)
---------------------------------
  Ru    -0.064344   -0.175682   -0.012222
  C      1.546320    1.136494   -0.983353
  C      1.182588    1.622095    0.326342
  C      2.076803   -0.497674    0.579629
  C      2.043947   -0.183601   -0.846926
  C      1.561141    0.611266    1.297590
  C      1.492783    1.931783   -2.249249
  H      0.696535    2.680581   -2.225612
  H      1.338709    1.291322   -3.121811
  H      2.442862    2.463439   -2.390633
  C      2.565540   -1.075324   -1.928175
  H      2.249514   -0.728507   -2.915600
  H      2.192282   -2.094362   -1.786204
  H      3.663236   -1.101421   -1.912436
  C      2.692583   -1.723434    1.172166
  H      3.783501   -1.598681    1.210971
  H      2.457484   -2.606090    0.574387
  H      2.333089   -1.899010    2.188816
  C      1.552612    0.773239    2.786124
  H      2.502734    1.205302    3.127194
  H      1.421923   -0.187720    3.289969
  H      0.754394    1.442873    3.118115
  C      0.799428    3.031668    0.660505
  H      1.693878    3.613580    0.920796
  H      0.118442    3.075561    1.514596
  H      0.315927    3.528553   -0.183556
  Cl    -0.006885   -2.617235   -0.279085
  C     -1.774511   -0.580489   -1.372668
  C     -1.428717    0.775607   -1.463600
  C     -2.230150    1.901113   -0.842184
  C     -2.597560    1.596364    0.619137
  C     -1.528383    0.747182    1.301561
  C     -1.615603   -0.659023    1.435525
  C     -2.738883   -1.472042    0.832207
  C     -3.001399   -1.117797   -0.653050
  H     -3.131417    2.097786   -1.444322
  H     -3.561641    1.080890    0.673312
  H     -1.631000    2.816891   -0.882167
  H     -3.816216   -0.389170   -0.734954
  H     -1.353755   -1.240657   -2.123162
  H     -0.836828    1.063474   -2.328552
  H     -3.337183   -2.018298   -1.174989
  H     -2.460187   -2.525401    0.898608
  H     -1.127422   -1.117347    2.293712
  H     -3.660878   -1.338434    1.419672
  H     -2.720080    2.533691    1.172959
  H     -0.970929    1.269583    2.073632

 Total Charge           Charge          ....    0
 Multiplicity           Mult            ....    1
 Number of Electrons    NEL             ....  168
 Basis Dimension        Dim             .... 1232

ORBITAL ENERGIES
----------------

  NO   OCC          E(Eh)            E(eV)
   0   2.0000    -101.621599     -2765.2643
   1   2.0000     -10.273677      -279.5610
   2   2.0000     -10.269839      -279.4565
   3   2.0000     -10.266879      -279.3760
   4   2.0000     -10.265541      -279.3396
   5   2.0000     -10.262156      -279.2475
   6   2.0000     -10.249923      -278.9146
   7   2.0000     -10.248296      -278.8703
   8   2.0000     -10.246830      -278.8304
   9   2.0000     -10.245667      -278.7988
  10   2.0000     -10.242806      -278.7209
  11   2.0000     -10.239404      -278.6284
  12   2.0000     -10.236146      -278.5397
  13   2.0000     -10.235182      -278.5135
  14   2.0000     -10.232373      -278.4370
  15   2.0000     -10.230676      -278.3908
  16   2.0000     -10.228148      -278.3221
  17   2.0000     -10.225653      -278.2542
  18   2.0000     -10.220295      -278.1084
  19   2.0000      -9.497289      -258.4344
  20   2.0000      -7.203570      -196.0191
  21   2.0000      -7.198829      -195.8901
  22   2.0000      -7.198660      -195.8855
  23   2.0000      -3.007932       -81.8500
  24   2.0000      -1.877555       -51.0909
  25   2.0000      -1.858142       -50.5626
  26   2.0000      -1.849838       -50.3367
  27   2.0000      -0.916607       -24.9421
  28   2.0000      -0.842631       -22.9292
  29   2.0000      -0.804973       -21.9044
  30   2.0000      -0.799245       -21.7486
  31   2.0000      -0.783849       -21.3296
  32   2.0000      -0.777381       -21.1536
  33   2.0000      -0.745561       -20.2878
  34   2.0000      -0.741110       -20.1666
  35   2.0000      -0.733546       -19.9608
  36   2.0000      -0.730762       -19.8850
  37   2.0000      -0.697808       -18.9883
  38   2.0000      -0.673221       -18.3193
  39   2.0000      -0.647541       -17.6205
  40   2.0000      -0.638665       -17.3789
  41   2.0000      -0.602436       -16.3931
  42   2.0000      -0.559793       -15.2328
  43   2.0000      -0.539528       -14.6813
  44   2.0000      -0.538507       -14.6535
  45   2.0000      -0.522782       -14.2256
  46   2.0000      -0.503614       -13.7040
  47   2.0000      -0.491520       -13.3749
  48   2.0000      -0.477218       -12.9857
  49   2.0000      -0.471923       -12.8417
  50   2.0000      -0.464945       -12.6518
  51   2.0000      -0.451636       -12.2896
  52   2.0000      -0.449052       -12.2193
  53   2.0000      -0.442729       -12.0473
  54   2.0000      -0.437126       -11.8948
  55   2.0000      -0.435205       -11.8425
  56   2.0000      -0.427080       -11.6214
  57   2.0000      -0.424455       -11.5500
  58   2.0000      -0.421995       -11.4831
  59   2.0000      -0.418717       -11.3939
  60   2.0000      -0.414950       -11.2914
  61   2.0000      -0.413609       -11.2549
  62   2.0000      -0.406601       -11.0642
  63   2.0000      -0.397832       -10.8256
  64   2.0000      -0.393566       -10.7095
  65   2.0000      -0.377601       -10.2750
  66   2.0000      -0.374250       -10.1839
  67   2.0000      -0.365782        -9.9534
  68   2.0000      -0.364306        -9.9133
  69   2.0000      -0.363107        -9.8806
  70   2.0000      -0.358362        -9.7515
  71   2.0000      -0.353868        -9.6292
  72   2.0000      -0.332986        -9.0610
  73   2.0000      -0.326766        -8.8917
  74   2.0000      -0.309358        -8.4181
  75   2.0000      -0.296097        -8.0572
  76   2.0000      -0.290235        -7.8977
  77   2.0000      -0.280721        -7.6388
  78   2.0000      -0.272821        -7.4238
  79   2.0000      -0.262068        -7.1312
  80   2.0000      -0.253082        -6.8867
  81   2.0000      -0.223017        -6.0686
  82   2.0000      -0.219799        -5.9810
  83   2.0000      -0.203982        -5.5506
  84   0.0000      -0.039305        -1.0695
  85   0.0000      -0.035994        -0.9795
  86   0.0000      -0.024578        -0.6688
  87   0.0000      -0.021132        -0.5750
  88   0.0000      -0.017064        -0.4643

MULLIKEN ATOMIC CHARGES
-----------------------
   0 Ru:   -1.262987
   1 C :    1.180820
   2 C :    1.194227
   3 C :    0.779367
   4 C :    0.928616
   5 C :    1.925875
   6 C :   -3.046257
   7 H :    0.652781
   8 H :    0.630143
   9 H :    0.860692
  10 C :   -3.032750
  11 H :    0.731817
  12 H :    0.599894
  13 H :    0.714200
  14 C :   -3.244644
  15 H :    0.741617
  16 H :    0.570493
  17 H :    0.719690
  18 C :   -2.972640
  19 H :    0.773025
  20 H :    0.605112
  21 H :    0.750761
  22 C :   -3.075767
  23 H :    0.871139
  24 H :    0.575805
  25 H :    0.621972
  26 Cl:   -0.596457
  27 C :   -1.937350
  28 C :    0.162588
  29 C :   -2.122350
  30 C :   -2.561975
  31 C :   -0.316240
  32 C :   -0.485079
  33 C :   -1.881244
  34 C :   -1.672025
  35 H :    1.103628
  36 H :    0.771771
  37 H :    0.508461
  38 H :    0.664253
  39 H :    1.101632
  40 H :    1.847986
  41 H :    0.787787
  42 H :    0.794112
  43 H :    0.863826
  44 H :    0.964837
  45 H :    0.857013
  46 H :    1.351826
Sum of atomic charges:    0.0000000

LOEWDIN ATOMIC CHARGES
----------------------
   0 Ru:    0.986375
   1 C :   -0.209034
   2 C :   -0.224123
   3 C :   -0.258223
   4 C :   -0.238528
   5 C :   -0.233070
   6 C :    0.166152
   7 H :   -0.013876
   8 H :   -0.006794
   9 H :    0.014480
  10 C :    0.157751
  11 H :   -0.010469
  12 H :   -0.044508
  13 H :    0.006765
  14 C :    0.138599
  15 H :    0.010466
  16 H :   -0.057042
  17 H :   -0.008896
  18 C :    0.176996
  19 H :    0.010900
  20 H :   -0.004496
  21 H :   -0.017619
  22 C :    0.177922
  23 H :    0.011192
  24 H :   -0.011140
  25 H :   -0.018852
  26 Cl:    0.169219
  27 C :   -0.158685
  28 C :   -0.100553
  29 C :   -0.013372
  30 C :   -0.002911
  31 C :   -0.105725
  32 C :   -0.159212
  33 C :   -0.067255
  34 C :   -0.024962
  35 H :    0.025992
  36 H :    0.004690
  37 H :   -0.005272
  38 H :    0.005614
  39 H :   -0.035443
  40 H :   -0.018742
  41 H :    0.016400
  42 H :   -0.024651
  43 H :   -0.007389
  44 H :    0.020624
  45 H :    0.017369
  46 H :   -0.036666

  Mayer bond orders larger than 0.100000
B(  0-Ru,  1-C ) :   0.3793 B(  0-Ru,  2-C ) :   0.7290 B(  0-Ru,  3-C ) :   0.4494
B(  0-Ru,  4-C ) :   0.2509 B(  0-Ru,  5-C ) :  -0.2648 B(  0-Ru,  6-C ) :   0.4328
B(  0-Ru, 10-C ) :   0.3473 B(  0-Ru, 18-C ) :   0.2967 B(  0-Ru, 22-C ) :   0.2586
B(  0-Ru, 26-Cl) :   0.3477 B(  0-Ru, 27-C ) :   1.0033 B(  0-Ru, 28-C ) :  -0.3733
B(  0-Ru, 29-C ) :   0.6050 B(  0-Ru, 30-C ) :   0.1463 B(  0-Ru, 31-C ) :   0.7656
B(  0-Ru, 32-C ) :   0.3345 B(  0-Ru, 33-C ) :   0.1633 B(  0-Ru, 34-C ) :   0.1278
B(  0-Ru, 46-H ) :   0.1140 B(  1-C ,  2-C ) :   0.3219 B(  1-C ,  3-C ) :  -0.4637
B(  1-C ,  4-C ) :   0.8123 B(  1-C ,  5-C ) :  -0.3870 B(  1-C ,  6-C ) :  -0.7726
B(  1-C ,  7-H ) :  -0.2704 B(  1-C ,  8-H ) :  -0.3526 B(  1-C , 12-H ) :   0.1086
B(  1-C , 22-C ) :   0.1798 B(  1-C , 25-H ) :   0.1098 B(  1-C , 27-C ) :  -0.2804
B(  1-C , 28-C ) :  -0.3579 B(  1-C , 30-C ) :  -0.1775 B(  1-C , 31-C ) :   0.2019
B(  1-C , 40-H ) :   0.4573 B(  2-C ,  5-C ) :   0.6585 B(  2-C ,  6-C ) :  -0.1958
B(  2-C ,  7-H ) :   0.1787 B(  2-C , 18-C ) :   0.1536 B(  2-C , 22-C ) :  -1.1820
B(  2-C , 24-H ) :  -0.3598 B(  2-C , 25-H ) :  -0.2767 B(  2-C , 27-C ) :  -0.1120
B(  2-C , 29-C ) :  -0.1826 B(  2-C , 30-C ) :   0.2979 B(  2-C , 31-C ) :  -0.3812
B(  3-C ,  4-C ) :   0.4940 B(  3-C ,  5-C ) :   0.9934 B(  3-C , 10-C ) :   0.2924
B(  3-C , 14-C ) :  -0.9152 B(  3-C , 16-H ) :  -0.3906 B(  3-C , 17-H ) :  -0.2057
B(  3-C , 18-C ) :  -0.2706 B(  3-C , 26-Cl) :   0.2922 B(  3-C , 27-C ) :  -0.1919
B(  3-C , 28-C ) :  -0.1985 B(  3-C , 31-C ) :   0.3286 B(  3-C , 46-H ) :  -0.1178
B(  4-C ,  5-C ) :  -0.2469 B(  4-C ,  6-C ) :  -0.1620 B(  4-C , 10-C ) :  -0.9249
B(  4-C , 11-H ) :  -0.1131 B(  4-C , 12-H ) :  -0.2295 B(  4-C , 13-H ) :  -0.1087
B(  4-C , 14-C ) :  -0.3071 B(  4-C , 22-C ) :   0.1116 B(  4-C , 26-Cl) :  -0.1853
B(  4-C , 27-C ) :   0.1696 B(  4-C , 28-C ) :   0.3393 B(  4-C , 31-C ) :  -0.4619
B(  4-C , 40-H ) :  -0.1069 B(  4-C , 46-H ) :   0.1744 B(  5-C , 14-C ) :  -0.2908
B(  5-C , 18-C ) :  -0.9252 B(  5-C , 20-H ) :  -0.3237 B(  5-C , 21-H ) :  -0.2100
B(  5-C , 25-H ) :  -0.1880 B(  5-C , 27-C ) :   0.1309 B(  5-C , 28-C ) :   0.2314
B(  5-C , 29-C ) :  -0.1119 B(  5-C , 31-C ) :  -0.1918 B(  5-C , 32-C ) :   0.4113
B(  5-C , 46-H ) :   0.1225 B(  6-C ,  7-H ) :   0.6969 B(  6-C ,  8-H ) :   0.9452
B(  6-C ,  9-H ) :   0.1386 B(  6-C , 22-C ) :  -0.1720 B(  6-C , 27-C ) :   0.3187
B(  6-C , 31-C ) :  -0.1338 B(  6-C , 32-C ) :   0.1280 B(  6-C , 40-H ) :  -0.5040
B(  7-H ,  8-H ) :   0.2486 B(  7-H ,  9-H ) :   0.1315 B( 10-C , 11-H ) :   0.4989
B( 10-C , 12-H ) :   0.7694 B( 10-C , 13-H ) :   0.6995 B( 10-C , 26-Cl) :  -0.1322
B( 11-H , 12-H ) :   0.1599 B( 11-H , 13-H ) :   0.1132 B( 12-H , 13-H ) :   0.1368
B( 14-C , 15-H ) :   0.4366 B( 14-C , 16-H ) :   0.9053 B( 14-C , 17-H ) :   0.6631
B( 14-C , 31-C ) :   0.1524 B( 14-C , 32-C ) :  -0.1183 B( 15-H , 16-H ) :   0.1169
B( 15-H , 17-H ) :   0.1054 B( 16-H , 17-H ) :   0.2394 B( 18-C , 19-H ) :   0.4291
B( 18-C , 20-H ) :   0.9903 B( 18-C , 21-H ) :   0.4690 B( 18-C , 31-C ) :   0.2580
B( 18-C , 46-H ) :  -0.2153 B( 19-H , 20-H ) :   0.1007 B( 19-H , 21-H ) :   0.1479
B( 20-H , 21-H ) :   0.2384 B( 21-H , 31-C ) :  -0.1025 B( 22-C , 23-H ) :   0.1058
B( 22-C , 24-H ) :   1.0315 B( 22-C , 25-H ) :   0.8749 B( 22-C , 31-C ) :   0.1995
B( 22-C , 46-H ) :  -0.1085 B( 24-H , 25-H ) :   0.3824 B( 26-Cl, 27-C ) :   0.2667
B( 26-Cl, 28-C ) :  -0.1425 B( 26-Cl, 33-C ) :   0.2635 B( 26-Cl, 43-H ) :  -0.1270
B( 27-C , 28-C ) :  -0.1093 B( 27-C , 29-C ) :   0.4587 B( 27-C , 30-C ) :   0.1742
B( 27-C , 32-C ) :  -0.4372 B( 27-C , 34-C ) :   0.3986 B( 27-C , 39-H ) :  -0.2459
B( 27-C , 40-H ) :  -1.1668 B( 27-C , 46-H ) :  -0.1497 B( 28-C , 29-C ) :   0.3557
B( 28-C , 31-C ) :  -0.1401 B( 28-C , 32-C ) :   0.2745 B( 28-C , 34-C ) :   0.2689
B( 28-C , 36-H ) :   0.1905 B( 28-C , 37-H ) :   0.2808 B( 28-C , 40-H ) :  -0.8504
B( 28-C , 45-H ) :  -0.1246 B( 28-C , 46-H ) :   0.1389 B( 29-C , 30-C ) :   0.3312
B( 29-C , 31-C ) :  -0.1017 B( 29-C , 35-H ) :  -0.1818 B( 29-C , 37-H ) :   0.9332
B( 29-C , 40-H ) :  -0.4058 B( 29-C , 46-H ) :   0.1013 B( 30-C , 31-C ) :  -0.3378
B( 30-C , 32-C ) :   0.6401 B( 30-C , 34-C ) :   0.2654 B( 30-C , 35-H ) :  -0.1717
B( 30-C , 36-H ) :   0.5557 B( 30-C , 37-H ) :   0.2271 B( 30-C , 39-H ) :  -0.2106
B( 30-C , 45-H ) :   0.2930 B( 31-C , 32-C ) :   1.5040 B( 31-C , 33-C ) :  -0.2179
B( 31-C , 34-C ) :  -0.1441 B( 31-C , 46-H ) :  -0.8183 B( 32-C , 33-C ) :   0.3858
B( 32-C , 34-C ) :   0.1583 B( 32-C , 42-H ) :   0.1409 B( 32-C , 43-H ) :   0.4266
B( 32-C , 46-H ) :  -0.3567 B( 33-C , 34-C ) :   0.4453 B( 33-C , 42-H ) :   0.5024
B( 33-C , 44-H ) :   0.1527 B( 34-C , 38-H ) :   0.7197 B( 34-C , 41-H ) :   0.4223
B( 34-C , 46-H ) :  -0.1200 B( 36-H , 45-H ) :   0.1075 B( 38-H , 41-H ) :   0.1050

Dispersion correction           -0.011790398
FINAL SINGLE POINT ENERGY     -1257.072404237182

DIPOLE MOMENT
-------------
                                X             Y             Z
Electronic contribution:     -2.94536     -21.65604      -2.00935
Nuclear contribution   :      3.57716      23.71136       2.15126
                        -----------------------------------------
Total Dipole Moment    :      0.63180       2.05533       0.14191
                        -----------------------------------------
Magnitude (a.u.)       :      2.15492
Magnitude (Debye)      :      5.47738

Rotational constants in cm-1:     0.013422     0.011126     0.009459
Rotational constants in MHz :   402.378908   333.556426   283.583792

                             ****ORCA TERMINATED NORMALLY****
TOTAL RUN TIME: 0 days 0 hours 43 minutes 3 seconds 790 msec
