                         Program Version 4.2.0 -  RELEASE  -
|  1> #
|  2> # MOR26_pr05 M06-D3/Def2-TZVPPD
|  3> #
|  4> ! m06 d3zero def2-tzvppd def2/jk grid4 nofinalgrid
|  5>
|  6> *xyz 0 1
|  7> Mn       0.144445   -0.000220    0.050119
|  8> O       -2.125838   -0.018069    2.024989
|  9> C       -1.261969   -0.011297    1.274333
| 10> C        1.407998   -0.004194    1.401883
| 11> O        2.195378   -0.006691    2.240943
| 12> C        1.458789    0.011243   -1.252981
| 13> O        2.260044    0.018413   -2.075843
| 14> C       -0.034165    1.837211   -0.109707
| 15> O       -0.163636    2.972926   -0.231026
| 16> C       -0.023402   -1.836685   -0.130415
| 17> O       -0.146189   -2.971707   -0.264701
| 18> C       -1.328355    0.004078   -1.485929
| 19> O       -2.518815    0.004844   -1.307728
| 20> H       -0.932058    0.005632   -2.529143
| 21> *
| 22>
| 23> %maxcore 5000
| 24>
| 25> %pal
| 26> nprocs = 24
| 27> end
| 28>
| 29>
| 30>                          ****END OF INPUT****

CARTESIAN COORDINATES (ANGSTROEM)
---------------------------------
  Mn     0.144445   -0.000220    0.050119
  O     -2.125838   -0.018069    2.024989
  C     -1.261969   -0.011297    1.274333
  C      1.407998   -0.004194    1.401883
  O      2.195378   -0.006691    2.240943
  C      1.458789    0.011243   -1.252981
  O      2.260044    0.018413   -2.075843
  C     -0.034165    1.837211   -0.109707
  O     -0.163636    2.972926   -0.231026
  C     -0.023402   -1.836685   -0.130415
  O     -0.146189   -2.971707   -0.264701
  C     -1.328355    0.004078   -1.485929
  O     -2.518815    0.004844   -1.307728
  H     -0.932058    0.005632   -2.529143

 Total Charge           Charge          ....    0
 Multiplicity           Mult            ....    1
 Number of Electrons    NEL             ....  110
 Basis Dimension        Dim             ....  546

ORBITAL ENERGIES
----------------

  NO   OCC          E(Eh)            E(eV)
   0   2.0000    -235.770551     -6415.6429
   1   2.0000     -27.584700      -750.6179
   2   2.0000     -23.587215      -641.8408
   3   2.0000     -23.586085      -641.8100
   4   2.0000     -23.580873      -641.6682
   5   2.0000     -19.321773      -525.7722
   6   2.0000     -19.318898      -525.6939
   7   2.0000     -19.314614      -525.5774
   8   2.0000     -19.314596      -525.5769
   9   2.0000     -19.310224      -525.4579
  10   2.0000     -19.228471      -523.2333
  11   2.0000     -10.389591      -282.7151
  12   2.0000     -10.387597      -282.6609
  13   2.0000     -10.386031      -282.6183
  14   2.0000     -10.386004      -282.6175
  15   2.0000     -10.381915      -282.5063
  16   2.0000     -10.337840      -281.3069
  17   2.0000      -3.267872       -88.9233
  18   2.0000      -2.106712       -57.3266
  19   2.0000      -2.106372       -57.3173
  20   2.0000      -2.094699       -56.9997
  21   2.0000      -1.185670       -32.2637
  22   2.0000      -1.183495       -32.2045
  23   2.0000      -1.178649       -32.0727
  24   2.0000      -1.178621       -32.0719
  25   2.0000      -1.174249       -31.9529
  26   2.0000      -1.083719       -29.4895
  27   2.0000      -0.653353       -17.7786
  28   2.0000      -0.612086       -16.6557
  29   2.0000      -0.605230       -16.4692
  30   2.0000      -0.603110       -16.4115
  31   2.0000      -0.598908       -16.2971
  32   2.0000      -0.598385       -16.2829
  33   2.0000      -0.534461       -14.5434
  34   2.0000      -0.521946       -14.2029
  35   2.0000      -0.515424       -14.0254
  36   2.0000      -0.512949       -13.9580
  37   2.0000      -0.512727       -13.9520
  38   2.0000      -0.510176       -13.8826
  39   2.0000      -0.510078       -13.8799
  40   2.0000      -0.498780       -13.5725
  41   2.0000      -0.493559       -13.4304
  42   2.0000      -0.492972       -13.4144
  43   2.0000      -0.491873       -13.3845
  44   2.0000      -0.486472       -13.2376
  45   2.0000      -0.479569       -13.0497
  46   2.0000      -0.471672       -12.8349
  47   2.0000      -0.457058       -12.4372
  48   2.0000      -0.445196       -12.1144
  49   2.0000      -0.421275       -11.4635
  50   2.0000      -0.413425       -11.2499
  51   2.0000      -0.306174        -8.3314
  52   2.0000      -0.294160        -8.0045
  53   2.0000      -0.292113        -7.9488
  54   2.0000      -0.245903        -6.6914
  55   0.0000      -0.057515        -1.5651
  56   0.0000      -0.056902        -1.5484
  57   0.0000      -0.051073        -1.3898
  58   0.0000      -0.047422        -1.2904
  59   0.0000      -0.040921        -1.1135

MULLIKEN ATOMIC CHARGES
-----------------------
   0 Mn:    3.448310
   1 O :   -0.419930
   2 C :    0.143910
   3 C :   -0.284947
   4 O :   -0.498401
   5 C :   -0.010073
   6 O :   -0.452673
   7 C :   -0.263445
   8 O :   -0.444786
   9 C :   -0.263583
  10 O :   -0.444989
  11 C :   -0.203050
  12 O :   -0.627952
  13 H :    0.321608
Sum of atomic charges:    0.0000000

LOEWDIN ATOMIC CHARGES
----------------------
   0 Mn:   -0.403813
   1 O :    0.185156
   2 C :   -0.047063
   3 C :   -0.057419
   4 O :    0.145613
   5 C :   -0.069808
   6 O :    0.166938
   7 C :   -0.060655
   8 O :    0.162893
   9 C :   -0.060774
  10 O :    0.162800
  11 C :   -0.125399
  12 O :    0.011567
  13 H :   -0.010035

  Mayer bond orders larger than 0.100000
B(  0-Mn,  2-C ) :   0.2349 B(  0-Mn,  3-C ) :  -0.3325 B(  0-Mn,  7-C ) :  -0.2521
B(  0-Mn,  9-C ) :  -0.2519 B(  0-Mn, 11-C ) :  -0.2168 B(  0-Mn, 12-O ) :   0.1960
B(  0-Mn, 13-H ) :  -0.2994 B(  1-O ,  2-C ) :   1.7193 B(  2-C ,  5-C ) :   0.1574
B(  3-C ,  4-O ) :   1.6069 B(  5-C ,  6-O ) :   1.6841 B(  5-C , 11-C ) :   0.1396
B(  7-C ,  8-O ) :   1.7014 B(  7-C , 11-C ) :   0.2084 B(  9-C , 10-O ) :   1.7013
B(  9-C , 11-C ) :   0.2094 B( 11-C , 12-O ) :   1.5175 B( 11-C , 13-H ) :   1.2644

Dispersion correction           -0.002145016
FINAL SINGLE POINT ENERGY     -1831.510856919715

DIPOLE MOMENT
-------------
                                X             Y             Z
Electronic contribution:      2.34957      -0.00713       2.63480
Nuclear contribution   :     -1.52284       0.00619      -2.55446
                        -----------------------------------------
Total Dipole Moment    :      0.82673      -0.00094       0.08033
                        -----------------------------------------
Magnitude (a.u.)       :      0.83062
Magnitude (Debye)      :      2.11127

Rotational constants in cm-1:     0.023969     0.022043     0.021367
Rotational constants in MHz :   718.564967   660.846663   640.564054

                             ****ORCA TERMINATED NORMALLY****
TOTAL RUN TIME: 0 days 0 hours 2 minutes 18 seconds 321 msec
