                         Program Version 4.2.0 -  RELEASE  -
|  1> #
|  2> # MOR21_mecn M06-D3/Def2-TZVPPD
|  3> #
|  4> ! m06 d3zero def2-tzvppd def2/jk grid4 nofinalgrid
|  5>
|  6> *xyz 0 1
|  7> N        1.434594    0.083513   -0.053227
|  8> C        0.278345    0.016206   -0.010325
|  9> C       -1.176577   -0.068494    0.043652
| 10> H       -1.556498   -0.572512   -0.849824
| 11> H       -1.609231    0.934929    0.094890
| 12> H       -1.487035   -0.633283    0.927565
| 13> *
| 14>
| 15> %maxcore 5000
| 16>
| 17> %pal
| 18> nprocs = 24
| 19> end
| 20>
| 21>
| 22>                          ****END OF INPUT****

CARTESIAN COORDINATES (ANGSTROEM)
---------------------------------
  N      1.434594    0.083513   -0.053227
  C      0.278345    0.016206   -0.010325
  C     -1.176577   -0.068494    0.043652
  H     -1.556498   -0.572512   -0.849824
  H     -1.609231    0.934929    0.094890
  H     -1.487035   -0.633283    0.927565

 Total Charge           Charge          ....    0
 Multiplicity           Mult            ....    1
 Number of Electrons    NEL             ....   22
 Basis Dimension        Dim             ....  162

ORBITAL ENERGIES
----------------

  NO   OCC          E(Eh)            E(eV)
   0   2.0000     -14.384916      -391.4335
   1   2.0000     -10.288247      -279.9574
   2   2.0000     -10.279039      -279.7069
   3   2.0000      -0.913316       -24.8526
   4   2.0000      -0.789649       -21.4874
   5   2.0000      -0.529724       -14.4145
   6   2.0000      -0.478343       -13.0164
   7   2.0000      -0.478319       -13.0157
   8   2.0000      -0.375443       -10.2163
   9   2.0000      -0.348376        -9.4798
  10   2.0000      -0.348374        -9.4797
  11   0.0000      -0.035550        -0.9674
  12   0.0000       0.008063         0.2194
  13   0.0000       0.018862         0.5132
  14   0.0000       0.018869         0.5134
  15   0.0000       0.050357         1.3703

MULLIKEN ATOMIC CHARGES
-----------------------
   0 N :   -0.528107
   1 C :    0.394838
   2 C :   -1.052829
   3 H :    0.396459
   4 H :    0.393667
   5 H :    0.395973
Sum of atomic charges:    0.0000000

LOEWDIN ATOMIC CHARGES
----------------------
   0 N :    0.108891
   1 C :   -0.229612
   2 C :    0.130202
   3 H :   -0.003174
   4 H :   -0.003187
   5 H :   -0.003121

  Mayer bond orders larger than 0.100000
B(  0-N ,  1-C ) :   1.8270 B(  1-C ,  2-C ) :   0.4656 B(  2-C ,  3-H ) :   0.8999
B(  2-C ,  4-H ) :   0.9042 B(  2-C ,  5-H ) :   0.9007

Dispersion correction           -0.000092598
FINAL SINGLE POINT ENERGY      -132.710625414012

DIPOLE MOMENT
-------------
                                X             Y             Z
Electronic contribution:      3.11681       0.18147      -0.11536
Nuclear contribution   :     -4.67428      -0.27212       0.17343
                        -----------------------------------------
Total Dipole Moment    :     -1.55747      -0.09065       0.05807
                        -----------------------------------------
Magnitude (a.u.)       :      1.56118
Magnitude (Debye)      :      3.96821

Rotational constants in cm-1:     5.279638     0.306561     0.306561
Rotational constants in MHz : 158279.554854  9190.460473  9190.452676

                             ****ORCA TERMINATED NORMALLY****
TOTAL RUN TIME: 0 days 0 hours 0 minutes 4 seconds 73 msec
