                         Program Version 4.2.0 -  RELEASE  -
|  1> #
|  2> # MOR24_pme3 M06-D3/Def2-TZVPPD
|  3> #
|  4> ! m06 d3zero def2-tzvppd def2/jk grid4 nofinalgrid
|  5>
|  6> *xyz 0 1
|  7> P        0.000014   -0.000022   -0.608033
|  8> C        1.496142   -0.644859    0.281510
|  9> H        1.381991   -0.595756    1.371521
| 10> H        2.374450   -0.059896   -0.010082
| 11> H        1.674284   -1.684941   -0.010215
| 12> C       -0.189596    1.618079    0.281483
| 13> H       -0.175035    1.494773    1.371519
| 14> H       -1.135286    2.086341   -0.010098
| 15> H        0.622176    2.292253   -0.010285
| 16> C       -1.306577   -0.973225    0.281488
| 17> H       -1.206743   -0.899098    1.371498
| 18> H       -1.239562   -2.026308   -0.010273
| 19> H       -2.296301   -0.607013   -0.009976
| 20> *
| 21>
| 22> %maxcore 5000
| 23>
| 24> %pal
| 25> nprocs = 24
| 26> end
| 27>
| 28>
| 29>                          ****END OF INPUT****

CARTESIAN COORDINATES (ANGSTROEM)
---------------------------------
  P      0.000014   -0.000022   -0.608033
  C      1.496142   -0.644859    0.281510
  H      1.381991   -0.595756    1.371521
  H      2.374450   -0.059896   -0.010082
  H      1.674284   -1.684941   -0.010215
  C     -0.189596    1.618079    0.281483
  H     -0.175035    1.494773    1.371519
  H     -1.135286    2.086341   -0.010098
  H      0.622176    2.292253   -0.010285
  C     -1.306577   -0.973225    0.281488
  H     -1.206743   -0.899098    1.371498
  H     -1.239562   -2.026308   -0.010273
  H     -2.296301   -0.607013   -0.009976

 Total Charge           Charge          ....    0
 Multiplicity           Mult            ....    1
 Number of Electrons    NEL             ....   42
 Basis Dimension        Dim             ....  312

ORBITAL ENERGIES
----------------

  NO   OCC          E(Eh)            E(eV)
   0   2.0000     -77.209657     -2100.9816
   1   2.0000     -10.227186      -278.2959
   2   2.0000     -10.227163      -278.2953
   3   2.0000     -10.227154      -278.2950
   4   2.0000      -6.635982      -180.5743
   5   2.0000      -4.757123      -129.4479
   6   2.0000      -4.757119      -129.4478
   7   2.0000      -4.752081      -129.3107
   8   2.0000      -0.766480       -20.8570
   9   2.0000      -0.696103       -18.9419
  10   2.0000      -0.696094       -18.9417
  11   2.0000      -0.537444       -14.6246
  12   2.0000      -0.445482       -12.1222
  13   2.0000      -0.433175       -11.7873
  14   2.0000      -0.433140       -11.7863
  15   2.0000      -0.407242       -11.0816
  16   2.0000      -0.407231       -11.0813
  17   2.0000      -0.395028       -10.7493
  18   2.0000      -0.332186        -9.0392
  19   2.0000      -0.332173        -9.0389
  20   2.0000      -0.234730        -6.3873
  21   0.0000      -0.015920        -0.4332
  22   0.0000      -0.004096        -0.1115
  23   0.0000      -0.004071        -0.1108
  24   0.0000       0.019491         0.5304
  25   0.0000       0.043076         1.1722

MULLIKEN ATOMIC CHARGES
-----------------------
   0 P :    0.230458
   1 C :   -1.575846
   2 H :    0.432953
   3 H :    0.531963
   4 H :    0.533849
   5 C :   -1.570714
   6 H :    0.425538
   7 H :    0.531927
   8 H :    0.536635
   9 C :   -1.575064
  10 H :    0.430582
  11 H :    0.534841
  12 H :    0.532880
Sum of atomic charges:    0.0000000

LOEWDIN ATOMIC CHARGES
----------------------
   0 P :    0.869381
   1 C :   -0.105792
   2 H :   -0.056869
   3 H :   -0.063563
   4 H :   -0.063589
   5 C :   -0.105699
   6 H :   -0.056904
   7 H :   -0.063604
   8 H :   -0.063579
   9 C :   -0.105744
  10 H :   -0.056868
  11 H :   -0.063569
  12 H :   -0.063601

  Mayer bond orders larger than 0.100000
B(  0-P ,  1-C ) :   0.7726 B(  0-P ,  5-C ) :   0.7670 B(  0-P ,  9-C ) :   0.7749
B(  1-C ,  2-H ) :   0.8021 B(  1-C ,  3-H ) :   0.7872 B(  1-C ,  4-H ) :   0.7835
B(  5-C ,  6-H ) :   0.8117 B(  5-C ,  7-H ) :   0.7845 B(  5-C ,  8-H ) :   0.7793
B(  9-C , 10-H ) :   0.8027 B(  9-C , 11-H ) :   0.7841 B(  9-C , 12-H ) :   0.7852

Dispersion correction           -0.000798973
FINAL SINGLE POINT ENERGY      -461.036718268801

DIPOLE MOMENT
-------------
                                X             Y             Z
Electronic contribution:      0.00049      -0.00029      -4.37854
Nuclear contribution   :     -0.00004       0.00039       4.80319
                        -----------------------------------------
Total Dipole Moment    :      0.00045       0.00010       0.42464
                        -----------------------------------------
Magnitude (a.u.)       :      0.42464
Magnitude (Debye)      :      1.07936

Rotational constants in cm-1:     0.191522     0.191510     0.123399
Rotational constants in MHz :  5741.693239  5741.320508  3699.411170

                             ****ORCA TERMINATED NORMALLY****
TOTAL RUN TIME: 0 days 0 hours 0 minutes 15 seconds 426 msec
