                         Program Version 4.2.0 -  RELEASE  -
|  1> #
|  2> # MOR29_pr11 M06-D3/Def2-TZVPPD
|  3> #
|  4> ! m06 d3zero def2-tzvppd def2/jk grid4 nofinalgrid
|  5>
|  6> *xyz 0 1
|  7> C       -1.039290   -2.639432    0.178033
|  8> C       -2.178017   -3.305635   -0.258724
|  9> C       -3.296391   -2.550827   -0.605540
| 10> C       -3.231094   -1.166811   -0.503382
| 11> H       -0.140242   -3.178187    0.457229
| 12> H       -2.180740   -4.388297   -0.324253
| 13> H       -4.206388   -3.031472   -0.950846
| 14> H       -4.092575   -0.563880   -0.765153
| 15> N       -0.970920   -1.306381    0.272680
| 16> C       -2.050199   -0.559703   -0.062217
| 17> C       -1.896627    0.903347    0.053727
| 18> N       -0.715899    1.344389    0.547476
| 19> C       -0.493208    2.660516    0.650101
| 20> C       -2.657172    3.172580   -0.229603
| 21> C       -1.435330    3.611046    0.276469
| 22> H        0.481431    2.944320    1.031789
| 23> H       -1.207232    4.666962    0.373432
| 24> C       -2.888209    1.807210   -0.342538
| 25> H       -3.826394    1.449184   -0.749672
| 26> H       -3.416704    3.882938   -0.540755
| 27> Pd       0.796966   -0.183618    0.920224
| 28> C        2.296006    1.038742    1.594093
| 29> H        1.829551    1.776866    2.255021
| 30> H        2.734263    1.506656    0.710942
| 31> H        3.050202    0.480142    2.149825
| 32> C        2.162541   -1.690695    1.159536
| 33> H        3.086547   -1.399047    0.660601
| 34> H        1.744149   -2.568037    0.656862
| 35> H        2.334771   -1.896294    2.218292
| 36> I        1.451603    0.093477   -1.772045
| 37> C        0.284011   -0.444486    2.913651
| 38> H       -0.123661   -1.453796    3.016265
| 39> H       -0.476481    0.304111    3.153737
| 40> H        1.159721   -0.321172    3.551993
| 41> *
| 42>
| 43> %maxcore 5000
| 44>
| 45> %pal
| 46> nprocs = 24
| 47> end
| 48>
| 49>
| 50>                          ****END OF INPUT****

CARTESIAN COORDINATES (ANGSTROEM)
---------------------------------
  C     -1.039290   -2.639432    0.178033
  C     -2.178017   -3.305635   -0.258724
  C     -3.296391   -2.550827   -0.605540
  C     -3.231094   -1.166811   -0.503382
  H     -0.140242   -3.178187    0.457229
  H     -2.180740   -4.388297   -0.324253
  H     -4.206388   -3.031472   -0.950846
  H     -4.092575   -0.563880   -0.765153
  N     -0.970920   -1.306381    0.272680
  C     -2.050199   -0.559703   -0.062217
  C     -1.896627    0.903347    0.053727
  N     -0.715899    1.344389    0.547476
  C     -0.493208    2.660516    0.650101
  C     -2.657172    3.172580   -0.229603
  C     -1.435330    3.611046    0.276469
  H      0.481431    2.944320    1.031789
  H     -1.207232    4.666962    0.373432
  C     -2.888209    1.807210   -0.342538
  H     -3.826394    1.449184   -0.749672
  H     -3.416704    3.882938   -0.540755
  Pd     0.796966   -0.183618    0.920224
  C      2.296006    1.038742    1.594093
  H      1.829551    1.776866    2.255021
  H      2.734263    1.506656    0.710942
  H      3.050202    0.480142    2.149825
  C      2.162541   -1.690695    1.159536
  H      3.086547   -1.399047    0.660601
  H      1.744149   -2.568037    0.656862
  H      2.334771   -1.896294    2.218292
  I      1.451603    0.093477   -1.772045
  C      0.284011   -0.444486    2.913651
  H     -0.123661   -1.453796    3.016265
  H     -0.476481    0.304111    3.153737
  H      1.159721   -0.321172    3.551993

 Total Charge           Charge          ....    0
 Multiplicity           Mult            ....    1
 Number of Electrons    NEL             ....  152
 Basis Dimension        Dim             ....  959

ORBITAL ENERGIES
----------------

  NO   OCC          E(Eh)            E(eV)
   0   2.0000     -14.441319      -392.9683
   1   2.0000     -14.440522      -392.9466
   2   2.0000     -10.323448      -280.9153
   3   2.0000     -10.322576      -280.8916
   4   2.0000     -10.307534      -280.4823
   5   2.0000     -10.306294      -280.4485
   6   2.0000     -10.290130      -280.0087
   7   2.0000     -10.289231      -279.9842
   8   2.0000     -10.283810      -279.8367
   9   2.0000     -10.283097      -279.8173
  10   2.0000     -10.279252      -279.7127
  11   2.0000     -10.278194      -279.6839
  12   2.0000     -10.220428      -278.1120
  13   2.0000     -10.220038      -278.1014
  14   2.0000     -10.218707      -278.0652
  15   2.0000      -6.760574      -183.9646
  16   2.0000      -4.799152      -130.5916
  17   2.0000      -4.793100      -130.4269
  18   2.0000      -4.792910      -130.4217
  19   2.0000      -3.485740       -94.8518
  20   2.0000      -2.178654       -59.2842
  21   2.0000      -2.174744       -59.1778
  22   2.0000      -2.174456       -59.1700
  23   2.0000      -1.863314       -50.7034
  24   2.0000      -1.861858       -50.6637
  25   2.0000      -1.861699       -50.6594
  26   2.0000      -1.856637       -50.5217
  27   2.0000      -1.856620       -50.5212
  28   2.0000      -1.010802       -27.5053
  29   2.0000      -0.986263       -26.8376
  30   2.0000      -0.855335       -23.2749
  31   2.0000      -0.847329       -23.0570
  32   2.0000      -0.841450       -22.8970
  33   2.0000      -0.787515       -21.4294
  34   2.0000      -0.703814       -19.1517
  35   2.0000      -0.693834       -18.8802
  36   2.0000      -0.689639       -18.7660
  37   2.0000      -0.666679       -18.1413
  38   2.0000      -0.665564       -18.1109
  39   2.0000      -0.657273       -17.8853
  40   2.0000      -0.649493       -17.6736
  41   2.0000      -0.603950       -16.4343
  42   2.0000      -0.590126       -16.0581
  43   2.0000      -0.548983       -14.9386
  44   2.0000      -0.548833       -14.9345
  45   2.0000      -0.525219       -14.2919
  46   2.0000      -0.513567       -13.9749
  47   2.0000      -0.488226       -13.2853
  48   2.0000      -0.478950       -13.0329
  49   2.0000      -0.476038       -12.9536
  50   2.0000      -0.466183       -12.6855
  51   2.0000      -0.458989       -12.4897
  52   2.0000      -0.443904       -12.0793
  53   2.0000      -0.428504       -11.6602
  54   2.0000      -0.422462       -11.4958
  55   2.0000      -0.421956       -11.4820
  56   2.0000      -0.415740       -11.3129
  57   2.0000      -0.408574       -11.1179
  58   2.0000      -0.389083       -10.5875
  59   2.0000      -0.382655       -10.4126
  60   2.0000      -0.379944       -10.3388
  61   2.0000      -0.379381       -10.3235
  62   2.0000      -0.368359       -10.0236
  63   2.0000      -0.349055        -9.4983
  64   2.0000      -0.342532        -9.3208
  65   2.0000      -0.337536        -9.1848
  66   2.0000      -0.335211        -9.1216
  67   2.0000      -0.291639        -7.9359
  68   2.0000      -0.289259        -7.8711
  69   2.0000      -0.287074        -7.8117
  70   2.0000      -0.283669        -7.7190
  71   2.0000      -0.281518        -7.6605
  72   2.0000      -0.273937        -7.4542
  73   2.0000      -0.213425        -5.8076
  74   2.0000      -0.198958        -5.4139
  75   2.0000      -0.198639        -5.4052
  76   0.0000      -0.091946        -2.5020
  77   0.0000      -0.064281        -1.7492
  78   0.0000      -0.052194        -1.4203
  79   0.0000      -0.043107        -1.1730
  80   0.0000      -0.032844        -0.8937

MULLIKEN ATOMIC CHARGES
-----------------------
   0 C :   -0.029014
   1 C :   -0.683980
   2 C :   -0.549686
   3 C :   -1.182745
   4 H :    0.186120
   5 H :    0.552990
   6 H :    0.528200
   7 H :    0.284768
   8 N :    0.572487
   9 C :    0.995734
  10 C :    0.546608
  11 N :    0.732030
  12 C :   -0.191029
  13 C :   -0.643068
  14 C :   -0.595578
  15 H :    0.190927
  16 H :    0.537872
  17 C :   -1.088144
  18 H :    0.294701
  19 H :    0.524821
  20 Pd:   -0.130441
  21 C :   -1.587877
  22 H :    0.538456
  23 H :    0.377001
  24 H :    0.581217
  25 C :   -1.621659
  26 H :    0.526018
  27 H :    0.533488
  28 H :    0.479959
  29 I :   -0.582148
  30 C :   -1.768408
  31 H :    0.519050
  32 H :    0.649761
  33 H :    0.501571
Sum of atomic charges:    0.0000000

LOEWDIN ATOMIC CHARGES
----------------------
   0 C :   -0.020906
   1 C :    0.059715
   2 C :    0.052260
   3 C :    0.083137
   4 H :    0.002158
   5 H :    0.010928
   6 H :    0.014574
   7 H :    0.003615
   8 N :    0.011950
   9 C :   -0.173652
  10 C :   -0.180897
  11 N :    0.002493
  12 C :   -0.023640
  13 C :    0.053128
  14 C :    0.060541
  15 H :    0.005775
  16 H :    0.010978
  17 C :    0.083536
  18 H :    0.003596
  19 H :    0.014497
  20 Pd:    0.654623
  21 C :    0.023166
  22 H :   -0.089408
  23 H :   -0.116641
  24 H :   -0.082881
  25 C :    0.016249
  26 H :   -0.101278
  27 H :   -0.105524
  28 H :   -0.082287
  29 I :    0.007399
  30 C :    0.070853
  31 H :   -0.089246
  32 H :   -0.087818
  33 H :   -0.090994

  Mayer bond orders larger than 0.100000
B(  0-C ,  1-C ) :   0.9982 B(  0-C ,  3-C ) :  -0.1021 B(  0-C ,  4-H ) :   1.0867
B(  0-C ,  8-N ) :   1.5761 B(  0-C , 20-Pd) :  -0.2087 B(  1-C ,  2-C ) :   0.9846
B(  1-C ,  4-H ) :  -0.1071 B(  1-C ,  5-H ) :   0.7221 B(  1-C ,  8-N ) :  -0.3098
B(  1-C , 20-Pd) :   0.1848 B(  2-C ,  3-C ) :   1.1010 B(  2-C ,  6-H ) :   0.7944
B(  2-C ,  8-N ) :   0.2181 B(  3-C ,  7-H ) :   1.2230 B(  3-C ,  8-N ) :  -0.6636
B(  3-C , 10-C ) :  -0.6322 B(  3-C , 20-Pd) :   0.3359 B(  7-H ,  9-C ) :  -0.4072
B(  8-N ,  9-C ) :   1.9271 B(  8-N , 10-C ) :  -0.3374 B(  8-N , 11-N ) :  -0.1389
B(  8-N , 20-Pd) :   0.4291 B(  8-N , 27-H ) :  -0.1095 B(  8-N , 30-C ) :  -0.1100
B(  9-C , 10-C ) :   0.3834 B(  9-C , 11-N ) :  -0.1006 B(  9-C , 17-C ) :  -0.8387
B(  9-C , 18-H ) :   0.1181 B(  9-C , 20-Pd) :  -0.3641 B( 10-C , 11-N ) :   1.6985
B( 10-C , 15-H ) :   0.1461 B( 10-C , 18-H ) :  -0.4292 B( 11-N , 12-C ) :   1.4653
B( 11-N , 13-C ) :   0.1430 B( 11-N , 14-C ) :  -0.3380 B( 11-N , 15-H ) :  -0.1184
B( 11-N , 17-C ) :  -0.7149 B( 11-N , 20-Pd) :   0.3974 B( 11-N , 29-I ) :   0.1161
B( 11-N , 30-C ) :  -0.1763 B( 12-C , 14-C ) :   1.0269 B( 12-C , 15-H ) :   1.1214
B( 12-C , 17-C ) :  -0.1476 B( 12-C , 20-Pd) :  -0.1792 B( 13-C , 14-C ) :   0.9546
B( 13-C , 17-C ) :   1.0062 B( 13-C , 19-H ) :   0.8043 B( 14-C , 16-H ) :   0.7348
B( 14-C , 20-Pd) :   0.1451 B( 17-C , 18-H ) :   1.2218 B( 17-C , 20-Pd) :   0.3406
B( 20-Pd, 21-C ) :   0.7153 B( 20-Pd, 25-C ) :   0.6278 B( 20-Pd, 29-I ) :   0.4761
B( 20-Pd, 30-C ) :   0.6115 B( 21-C , 22-H ) :   0.7738 B( 21-C , 23-H ) :   1.0155
B( 21-C , 24-H ) :   0.7386 B( 21-C , 25-C ) :  -0.1461 B( 21-C , 29-I ) :  -0.1078
B( 21-C , 30-C ) :  -0.2269 B( 22-H , 23-H ) :   0.1087 B( 23-H , 29-I ) :   0.1730
B( 25-C , 26-H ) :   0.8534 B( 25-C , 27-H ) :   0.6742 B( 25-C , 28-H ) :   0.9485
B( 25-C , 30-C ) :  -0.2371 B( 27-H , 28-H ) :   0.1267 B( 29-I , 30-C ) :   0.2170
B( 30-C , 31-H ) :   0.8488 B( 30-C , 32-H ) :   0.6924 B( 30-C , 33-H ) :   0.9012
B( 31-H , 32-H ) :   0.1224

Dispersion correction           -0.007226874
FINAL SINGLE POINT ENERGY     -1040.603772661365

DIPOLE MOMENT
-------------
                                X             Y             Z
Electronic contribution:    145.31726      -3.87720     -70.78512
Nuclear contribution   :   -148.61747       4.04670      71.83695
                        -----------------------------------------
Total Dipole Moment    :     -3.30021       0.16950       1.05183
                        -----------------------------------------
Magnitude (a.u.)       :      3.46792
Magnitude (Debye)      :      8.81475

Rotational constants in cm-1:     0.010327     0.008787     0.007812
Rotational constants in MHz :   309.600948   263.417504   234.204311

                             ****ORCA TERMINATED NORMALLY****
TOTAL RUN TIME: 0 days 0 hours 24 minutes 39 seconds 214 msec
