                         Program Version 4.2.0 -  RELEASE  -
|  1> #
|  2> # MOR23_phseh M06-D3/Def2-TZVPPD
|  3> #
|  4> ! m06 d3zero def2-tzvppd def2/jk grid4 nofinalgrid
|  5>
|  6> *xyz 0 1
|  7> C        0.099641    0.015172    0.000002
|  8> C        0.811159    1.219454    0.000004
|  9> C        2.205438    1.200000    0.000001
| 10> C        2.898295   -0.010923    0.000001
| 11> C        2.184022   -1.209573    0.000001
| 12> C        0.790170   -1.202154    0.000003
| 13> Se      -1.821201   -0.043502   -0.000002
| 14> H       -1.984560    1.419830   -0.000002
| 15> H        0.283594    2.168662    0.000009
| 16> H        2.749671    2.140448   -0.000003
| 17> H        3.983980   -0.020380    0.000003
| 18> H        2.711288   -2.159513   -0.000002
| 19> H        0.244496   -2.141840    0.000007
| 20> *
| 21>
| 22> %maxcore 5000
| 23>
| 24> %pal
| 25> nprocs = 24
| 26> end
| 27>
| 28>
| 29>                          ****END OF INPUT****

CARTESIAN COORDINATES (ANGSTROEM)
---------------------------------
  C      0.099641    0.015172    0.000002
  C      0.811159    1.219454    0.000004
  C      2.205438    1.200000    0.000001
  C      2.898295   -0.010923    0.000001
  C      2.184022   -1.209573    0.000001
  C      0.790170   -1.202154    0.000003
  Se    -1.821201   -0.043502   -0.000002
  H     -1.984560    1.419830   -0.000002
  H      0.283594    2.168662    0.000009
  H      2.749671    2.140448   -0.000003
  H      3.983980   -0.020380    0.000003
  H      2.711288   -2.159513   -0.000002
  H      0.244496   -2.141840    0.000007

 Total Charge           Charge          ....    0
 Multiplicity           Mult            ....    1
 Number of Electrons    NEL             ....   76
 Basis Dimension        Dim             ....  381

ORBITAL ENERGIES
----------------

  NO   OCC          E(Eh)            E(eV)
   0   2.0000    -454.216807    -12359.8677
   1   2.0000     -58.386143     -1588.7677
   2   2.0000     -52.339148     -1424.2206
   3   2.0000     -52.337722     -1424.1818
   4   2.0000     -52.335140     -1424.1116
   5   2.0000     -10.277904      -279.6760
   6   2.0000     -10.249429      -278.9011
   7   2.0000     -10.249140      -278.8933
   8   2.0000     -10.248686      -278.8809
   9   2.0000     -10.248523      -278.8765
  10   2.0000     -10.243981      -278.7529
  11   2.0000      -7.971167      -216.9065
  12   2.0000      -5.869372      -159.7137
  13   2.0000      -5.864554      -159.5826
  14   2.0000      -5.855854      -159.3459
  15   2.0000      -2.168804       -59.0162
  16   2.0000      -2.168583       -59.0101
  17   2.0000      -2.160798       -58.7983
  18   2.0000      -2.156879       -58.6917
  19   2.0000      -2.155627       -58.6576
  20   2.0000      -0.876688       -23.8559
  21   2.0000      -0.784097       -21.3364
  22   2.0000      -0.765318       -20.8254
  23   2.0000      -0.705735       -19.2040
  24   2.0000      -0.624739       -17.0000
  25   2.0000      -0.604819       -16.4580
  26   2.0000      -0.530546       -14.4369
  27   2.0000      -0.477358       -12.9896
  28   2.0000      -0.468503       -12.7486
  29   2.0000      -0.441496       -12.0137
  30   2.0000      -0.422472       -11.4961
  31   2.0000      -0.395304       -10.7568
  32   2.0000      -0.382575       -10.4104
  33   2.0000      -0.364323        -9.9137
  34   2.0000      -0.334545        -9.1034
  35   2.0000      -0.303099        -8.2477
  36   2.0000      -0.274789        -7.4774
  37   2.0000      -0.229723        -6.2511
  38   0.0000      -0.026684        -0.7261
  39   0.0000      -0.022077        -0.6008
  40   0.0000      -0.018743        -0.5100
  41   0.0000      -0.018211        -0.4955
  42   0.0000      -0.014564        -0.3963

MULLIKEN ATOMIC CHARGES
-----------------------
   0 C :    0.845600
   1 C :   -0.401097
   2 C :   -0.585693
   3 C :   -0.614469
   4 C :   -0.563099
   5 C :   -0.706254
   6 Se:    0.175542
   7 H :    0.006197
   8 H :    0.236238
   9 H :    0.402739
  10 H :    0.471323
  11 H :    0.404176
  12 H :    0.328797
Sum of atomic charges:    0.0000000

LOEWDIN ATOMIC CHARGES
----------------------
   0 C :   -0.575273
   1 C :   -0.049521
   2 C :    0.005314
   3 C :    0.001543
   4 C :    0.004673
   5 C :   -0.062061
   6 Se:    0.930837
   7 H :   -0.251561
   8 H :   -0.009476
   9 H :    0.004491
  10 H :    0.000514
  11 H :    0.004630
  12 H :   -0.004111

  Mayer bond orders larger than 0.100000
B(  0-C ,  1-C ) :   0.3231 B(  0-C ,  2-C ) :  -0.1578 B(  0-C ,  3-C ) :  -0.1090
B(  0-C ,  4-C ) :  -0.1532 B(  0-C ,  5-C ) :   0.5138 B(  0-C ,  6-Se) :   1.2006
B(  0-C ,  8-H ) :  -0.3552 B(  0-C , 12-H ) :  -0.2834 B(  1-C ,  2-C ) :   1.1640
B(  1-C ,  6-Se) :  -0.1702 B(  1-C ,  8-H ) :   1.1706 B(  1-C ,  9-H ) :  -0.1077
B(  2-C ,  3-C ) :   0.9740 B(  2-C ,  9-H ) :   0.9757 B(  3-C ,  4-C ) :   0.9531
B(  3-C , 10-H ) :   0.8323 B(  4-C ,  5-C ) :   1.2161 B(  4-C , 11-H ) :   0.9715
B(  5-C , 12-H ) :   1.0750 B(  6-Se,  7-H ) :   0.9227

Dispersion correction           -0.001012351
FINAL SINGLE POINT ENERGY     -2633.617787816145

DIPOLE MOMENT
-------------
                                X             Y             Z
Electronic contribution:    -25.11580      -1.52238      -0.00003
Nuclear contribution   :     25.40592       1.71219       0.00003
                        -----------------------------------------
Total Dipole Moment    :      0.29012       0.18982       0.00000
                        -----------------------------------------
Magnitude (a.u.)       :      0.34670
Magnitude (Debye)      :      0.88125

Rotational constants in cm-1:     0.185431     0.032154     0.027403
Rotational constants in MHz :  5559.086830   963.964760   821.511792

                             ****ORCA TERMINATED NORMALLY****
TOTAL RUN TIME: 0 days 0 hours 0 minutes 36 seconds 206 msec
