                         Program Version 4.2.0 -  RELEASE  -
|  1> #
|  2> # MOR27_pr07 M06-D3/Def2-TZVPPD
|  3> #
|  4> ! m06 d3zero def2-tzvppd def2/jk grid4 nofinalgrid
|  5>
|  6> *xyz 0 1
|  7> W        0.000153   -0.023654    0.145460
|  8> C       -0.000249    1.935753    0.684175
|  9> O       -0.000602    3.038332    1.069126
| 10> C        0.000042    0.319115   -1.817511
| 11> O        0.000023    0.516387   -2.971186
| 12> C        0.000186   -2.057627    0.000209
| 13> O        0.000001   -3.223688    0.015338
| 14> H       -0.422672   -0.342863    1.975704
| 15> H        0.423087   -0.343070    1.976292
| 16> P        2.499044    0.051189    0.053466
| 17> C        3.398497   -0.579400    1.568536
| 18> H        4.468576   -0.564735    1.332934
| 19> C        3.357030   -0.829661   -1.379272
| 20> H        3.371948   -0.051400   -2.154068
| 21> C        3.157630    1.804169   -0.095931
| 22> H        2.704128    2.295578    0.773940
| 23> C       -3.158190    1.803853   -0.098051
| 24> P       -2.499342    0.051185    0.053494
| 25> H       -4.468329   -0.563916    1.334439
| 26> H       -2.705915    2.296277    0.771888
| 27> C       -3.357947   -0.831337   -1.377937
| 28> H       -3.374541   -0.053484   -2.153122
| 29> C        4.805704   -1.269244   -1.108536
| 30> H        5.254950   -1.620204   -2.045252
| 31> H        4.835898   -2.103732   -0.400453
| 32> H        5.434431   -0.467933   -0.716341
| 33> C        2.560788   -2.016752   -1.935473
| 34> H        3.061937   -2.400142   -2.832615
| 35> H        1.542966   -1.732188   -2.204810
| 36> H        2.502084   -2.833493   -1.209948
| 37> C        4.680481    1.979802   -0.012340
| 38> H        4.916239    3.046506    0.083978
| 39> H        5.169829    1.620688   -0.922848
| 40> H        5.123446    1.463622    0.844533
| 41> C        2.617881    2.501599   -1.352306
| 42> H        2.906367    3.558914   -1.336615
| 43> H        1.529775    2.443192   -1.410983
| 44> H        3.032951    2.058398   -2.264167
| 45> C        3.156179    0.325190    2.783070
| 46> H        3.624905   -0.113517    3.671755
| 47> H        2.084721    0.431553    2.987984
| 48> H        3.570907    1.327076    2.642068
| 49> C        2.983676   -2.024266    1.875196
| 50> H        3.139448   -2.690345    1.021876
| 51> H        1.922767   -2.073885    2.140278
| 52> H        3.565975   -2.409562    2.720613
| 53> C       -4.681242    1.978525   -0.016373
| 54> H       -5.169268    1.617830   -0.926977
| 55> H       -4.917927    3.045167    0.078302
| 56> H       -5.124772    1.463082    0.840662
| 57> C       -2.617453    2.500423   -1.354472
| 58> H       -3.030239    2.055355   -2.266464
| 59> C       -2.982294   -2.021525    1.878658
| 60> H       -1.529170    2.443643   -1.411239
| 61> H       -2.907637    3.557302   -1.340680
| 62> C       -3.156106    0.329464    2.782654
| 63> H       -1.921474   -2.069894    2.144316
| 64> H       -3.564665   -2.406148    2.724324
| 65> H       -3.137027   -2.688908    1.026165
| 66> C       -3.398186   -0.577432    1.569777
| 67> H       -3.622276   -0.109074    3.672772
| 68> H       -3.573608    1.330095    2.640827
| 69> H       -2.084555    0.438855    2.985621
| 70> C       -4.805869   -1.272290   -1.105425
| 71> H       -5.255612   -1.624537   -2.041419
| 72> H       -5.435110   -0.471325   -0.713333
| 73> H       -4.834472   -2.106207   -0.396602
| 74> C       -2.561058   -2.017888   -1.934324
| 75> H       -2.500954   -2.834229   -1.208460
| 76> H       -1.543733   -1.732464   -2.204653
| 77> H       -3.062606   -2.402180   -2.830854
| 78> *
| 79>
| 80> %maxcore 5000
| 81>
| 82> %pal
| 83> nprocs = 24
| 84> end
| 85>
| 86>
| 87>                          ****END OF INPUT****

CARTESIAN COORDINATES (ANGSTROEM)
---------------------------------
  W      0.000153   -0.023654    0.145460
  C     -0.000249    1.935753    0.684175
  O     -0.000602    3.038332    1.069126
  C      0.000042    0.319115   -1.817511
  O      0.000023    0.516387   -2.971186
  C      0.000186   -2.057627    0.000209
  O      0.000001   -3.223688    0.015338
  H     -0.422672   -0.342863    1.975704
  H      0.423087   -0.343070    1.976292
  P      2.499044    0.051189    0.053466
  C      3.398497   -0.579400    1.568536
  H      4.468576   -0.564735    1.332934
  C      3.357030   -0.829661   -1.379272
  H      3.371948   -0.051400   -2.154068
  C      3.157630    1.804169   -0.095931
  H      2.704128    2.295578    0.773940
  C     -3.158190    1.803853   -0.098051
  P     -2.499342    0.051185    0.053494
  H     -4.468329   -0.563916    1.334439
  H     -2.705915    2.296277    0.771888
  C     -3.357947   -0.831337   -1.377937
  H     -3.374541   -0.053484   -2.153122
  C      4.805704   -1.269244   -1.108536
  H      5.254950   -1.620204   -2.045252
  H      4.835898   -2.103732   -0.400453
  H      5.434431   -0.467933   -0.716341
  C      2.560788   -2.016752   -1.935473
  H      3.061937   -2.400142   -2.832615
  H      1.542966   -1.732188   -2.204810
  H      2.502084   -2.833493   -1.209948
  C      4.680481    1.979802   -0.012340
  H      4.916239    3.046506    0.083978
  H      5.169829    1.620688   -0.922848
  H      5.123446    1.463622    0.844533
  C      2.617881    2.501599   -1.352306
  H      2.906367    3.558914   -1.336615
  H      1.529775    2.443192   -1.410983
  H      3.032951    2.058398   -2.264167
  C      3.156179    0.325190    2.783070
  H      3.624905   -0.113517    3.671755
  H      2.084721    0.431553    2.987984
  H      3.570907    1.327076    2.642068
  C      2.983676   -2.024266    1.875196
  H      3.139448   -2.690345    1.021876
  H      1.922767   -2.073885    2.140278
  H      3.565975   -2.409562    2.720613
  C     -4.681242    1.978525   -0.016373
  H     -5.169268    1.617830   -0.926977
  H     -4.917927    3.045167    0.078302
  H     -5.124772    1.463082    0.840662
  C     -2.617453    2.500423   -1.354472
  H     -3.030239    2.055355   -2.266464
  C     -2.982294   -2.021525    1.878658
  H     -1.529170    2.443643   -1.411239
  H     -2.907637    3.557302   -1.340680
  C     -3.156106    0.329464    2.782654
  H     -1.921474   -2.069894    2.144316
  H     -3.564665   -2.406148    2.724324
  H     -3.137027   -2.688908    1.026165
  C     -3.398186   -0.577432    1.569777
  H     -3.622276   -0.109074    3.672772
  H     -3.573608    1.330095    2.640827
  H     -2.084555    0.438855    2.985621
  C     -4.805869   -1.272290   -1.105425
  H     -5.255612   -1.624537   -2.041419
  H     -5.435110   -0.471325   -0.713333
  H     -4.834472   -2.106207   -0.396602
  C     -2.561058   -2.017888   -1.934324
  H     -2.500954   -2.834229   -1.208460
  H     -1.543733   -1.732464   -2.204653
  H     -3.062606   -2.402180   -2.830854

 Total Charge           Charge          ....    0
 Multiplicity           Mult            ....    1
 Number of Electrons    NEL             ....  238
 Basis Dimension        Dim             .... 1800

ORBITAL ENERGIES
----------------

  NO   OCC          E(Eh)            E(eV)
   0   2.0000     -77.236573     -2101.7140
   1   2.0000     -77.236550     -2101.7134
   2   2.0000     -19.251367      -523.8563
   3   2.0000     -19.249742      -523.8121
   4   2.0000     -19.238703      -523.5117
   5   2.0000     -10.316572      -280.7282
   6   2.0000     -10.315761      -280.7061
   7   2.0000     -10.309150      -280.5262
   8   2.0000     -10.251563      -278.9592
   9   2.0000     -10.251546      -278.9587
  10   2.0000     -10.251516      -278.9579
  11   2.0000     -10.251492      -278.9573
  12   2.0000     -10.249973      -278.9159
  13   2.0000     -10.249962      -278.9156
  14   2.0000     -10.235063      -278.5102
  15   2.0000     -10.235058      -278.5101
  16   2.0000     -10.234668      -278.4995
  17   2.0000     -10.234658      -278.4992
  18   2.0000     -10.233280      -278.4617
  19   2.0000     -10.233261      -278.4612
  20   2.0000     -10.232750      -278.4473
  21   2.0000     -10.232725      -278.4466
  22   2.0000     -10.226207      -278.2692
  23   2.0000     -10.226204      -278.2692
  24   2.0000     -10.223003      -278.1821
  25   2.0000     -10.222999      -278.1820
  26   2.0000      -6.661881      -181.2790
  27   2.0000      -6.661860      -181.2784
  28   2.0000      -4.782505      -130.1386
  29   2.0000      -4.782497      -130.1383
  30   2.0000      -4.782484      -130.1380
  31   2.0000      -4.782475      -130.1378
  32   2.0000      -4.779733      -130.0632
  33   2.0000      -4.779711      -130.0626
  34   2.0000      -2.875520       -78.2469
  35   2.0000      -1.554567       -42.3019
  36   2.0000      -1.552305       -42.2404
  37   2.0000      -1.544501       -42.0280
  38   2.0000      -1.110586       -30.2206
  39   2.0000      -1.109742       -30.1976
  40   2.0000      -1.098825       -29.9006
  41   2.0000      -0.829818       -22.5805
  42   2.0000      -0.829382       -22.5686
  43   2.0000      -0.798243       -21.7213
  44   2.0000      -0.798201       -21.7202
  45   2.0000      -0.795425       -21.6446
  46   2.0000      -0.795393       -21.6438
  47   2.0000      -0.704025       -19.1575
  48   2.0000      -0.703842       -19.1525
  49   2.0000      -0.701545       -19.0900
  50   2.0000      -0.701203       -19.0807
  51   2.0000      -0.694335       -18.8938
  52   2.0000      -0.694083       -18.8870
  53   2.0000      -0.666721       -18.1424
  54   2.0000      -0.664464       -18.0810
  55   2.0000      -0.599620       -16.3165
  56   2.0000      -0.599325       -16.3085
  57   2.0000      -0.598264       -16.2796
  58   2.0000      -0.597686       -16.2639
  59   2.0000      -0.573347       -15.6016
  60   2.0000      -0.546140       -14.8612
  61   2.0000      -0.543650       -14.7935
  62   2.0000      -0.531749       -14.4696
  63   2.0000      -0.531398       -14.4601
  64   2.0000      -0.508188       -13.8285
  65   2.0000      -0.487316       -13.2606
  66   2.0000      -0.485478       -13.2105
  67   2.0000      -0.483631       -13.1603
  68   2.0000      -0.477484       -12.9930
  69   2.0000      -0.472011       -12.8441
  70   2.0000      -0.471966       -12.8429
  71   2.0000      -0.460412       -12.5284
  72   2.0000      -0.455144       -12.3851
  73   2.0000      -0.454043       -12.3551
  74   2.0000      -0.448997       -12.2178
  75   2.0000      -0.447960       -12.1896
  76   2.0000      -0.440252       -11.9799
  77   2.0000      -0.438850       -11.9417
  78   2.0000      -0.438548       -11.9335
  79   2.0000      -0.435387       -11.8475
  80   2.0000      -0.432508       -11.7691
  81   2.0000      -0.431768       -11.7490
  82   2.0000      -0.428104       -11.6493
  83   2.0000      -0.423119       -11.5137
  84   2.0000      -0.420269       -11.4361
  85   2.0000      -0.419732       -11.4215
  86   2.0000      -0.414939       -11.2911
  87   2.0000      -0.412396       -11.2219
  88   2.0000      -0.410676       -11.1751
  89   2.0000      -0.408315       -11.1108
  90   2.0000      -0.407158       -11.0793
  91   2.0000      -0.403671       -10.9844
  92   2.0000      -0.399879       -10.8813
  93   2.0000      -0.397792       -10.8245
  94   2.0000      -0.397752       -10.8234
  95   2.0000      -0.394882       -10.7453
  96   2.0000      -0.394425       -10.7329
  97   2.0000      -0.378437       -10.2978
  98   2.0000      -0.368265       -10.0210
  99   2.0000      -0.368228       -10.0200
 100   2.0000      -0.367168        -9.9912
 101   2.0000      -0.366107        -9.9623
 102   2.0000      -0.363364        -9.8876
 103   2.0000      -0.362366        -9.8605
 104   2.0000      -0.358619        -9.7585
 105   2.0000      -0.357443        -9.7265
 106   2.0000      -0.354189        -9.6380
 107   2.0000      -0.353807        -9.6276
 108   2.0000      -0.352204        -9.5840
 109   2.0000      -0.351848        -9.5743
 110   2.0000      -0.310697        -8.4545
 111   2.0000      -0.308778        -8.4023
 112   2.0000      -0.308251        -8.3879
 113   2.0000      -0.307198        -8.3593
 114   2.0000      -0.305902        -8.3240
 115   2.0000      -0.262933        -7.1548
 116   2.0000      -0.203027        -5.5247
 117   2.0000      -0.197660        -5.3786
 118   2.0000      -0.193109        -5.2548
 119   0.0000      -0.033420        -0.9094
 120   0.0000      -0.028089        -0.7643
 121   0.0000      -0.027818        -0.7570
 122   0.0000      -0.024973        -0.6796
 123   0.0000      -0.024623        -0.6700

MULLIKEN ATOMIC CHARGES
-----------------------
   0 W :   -1.146378
   1 C :    0.487897
   2 O :   -0.615762
   3 C :    0.823172
   4 O :   -0.692336
   5 C :    0.670924
   6 O :   -0.624911
   7 H :   -0.452971
   8 H :   -0.418317
   9 P :    0.224698
  10 C :    1.154699
  11 H :    1.153830
  12 C :    1.590644
  13 H :    1.078497
  14 C :    1.215507
  15 H :    0.995617
  16 C :    1.217116
  17 P :    0.218980
  18 H :    1.150062
  19 H :    1.001786
  20 C :    1.588792
  21 H :    1.079260
  22 C :   -3.186893
  23 H :    0.898916
  24 H :    0.586341
  25 H :    0.534749
  26 C :   -2.652299
  27 H :    0.833779
  28 H :    0.364167
  29 H :    0.448440
  30 C :   -3.187506
  31 H :    0.813083
  32 H :    0.592488
  33 H :    0.543278
  34 C :   -2.828472
  35 H :    0.876932
  36 H :    0.362672
  37 H :    0.556077
  38 C :   -2.773743
  39 H :    0.907541
  40 H :    0.475526
  41 H :    0.479359
  42 C :   -2.942902
  43 H :    0.412888
  44 H :    0.489643
  45 H :    0.968588
  46 C :   -3.183842
  47 H :    0.592389
  48 H :    0.813634
  49 H :    0.542427
  50 C :   -2.825665
  51 H :    0.555148
  52 C :   -2.954945
  53 H :    0.362177
  54 H :    0.877656
  55 C :   -2.770823
  56 H :    0.491758
  57 H :    0.971810
  58 H :    0.413368
  59 C :    1.157287
  60 H :    0.908773
  61 H :    0.478546
  62 H :    0.472169
  63 C :   -3.192744
  64 H :    0.898016
  65 H :    0.536717
  66 H :    0.587423
  67 C :   -2.650755
  68 H :    0.446959
  69 H :    0.365234
  70 H :    0.833825
Sum of atomic charges:   -0.0000000

LOEWDIN ATOMIC CHARGES
----------------------
   0 W :    0.262355
   1 C :   -0.283167
   2 O :    0.045495
   3 C :   -0.332826
   4 O :    0.034294
   5 C :   -0.285724
   6 O :    0.039703
   7 H :    0.015940
   8 H :    0.016294
   9 P :    1.062593
  10 C :   -0.382392
  11 H :   -0.023875
  12 C :   -0.335217
  13 H :   -0.013217
  14 C :   -0.368354
  15 H :   -0.024476
  16 C :   -0.368360
  17 P :    1.062815
  18 H :   -0.023902
  19 H :   -0.024396
  20 C :   -0.335229
  21 H :   -0.013225
  22 C :    0.110539
  23 H :   -0.000684
  24 H :   -0.012188
  25 H :   -0.034904
  26 C :    0.102359
  27 H :   -0.000597
  28 H :   -0.046560
  29 H :   -0.019810
  30 C :    0.112036
  31 H :   -0.001124
  32 H :   -0.014182
  33 H :   -0.023622
  34 C :    0.107272
  35 H :    0.001382
  36 H :   -0.049054
  37 H :   -0.010603
  38 C :    0.107938
  39 H :   -0.001971
  40 H :   -0.028755
  41 H :   -0.019585
  42 C :    0.106811
  43 H :   -0.025516
  44 H :   -0.028928
  45 H :   -0.001621
  46 C :    0.111995
  47 H :   -0.014124
  48 H :   -0.001135
  49 H :   -0.023613
  50 C :    0.107282
  51 H :   -0.010602
  52 C :    0.106746
  53 H :   -0.049062
  54 H :    0.001366
  55 C :    0.107924
  56 H :   -0.028958
  57 H :   -0.001633
  58 H :   -0.025481
  59 C :   -0.382403
  60 H :   -0.001987
  61 H :   -0.019551
  62 H :   -0.028687
  63 C :    0.110473
  64 H :   -0.000676
  65 H :   -0.034875
  66 H :   -0.012183
  67 C :    0.102335
  68 H :   -0.019804
  69 H :   -0.046502
  70 H :   -0.000607

  Mayer bond orders larger than 0.100000
B(  0-W ,  1-C ) :   1.0002 B(  0-W ,  2-O ) :  -0.1244 B(  0-W ,  3-C ) :   0.9107
B(  0-W ,  4-O ) :   0.1627 B(  0-W ,  5-C ) :   1.0103 B(  0-W ,  6-O ) :  -0.1176
B(  0-W ,  7-H ) :   0.6392 B(  0-W ,  8-H ) :   0.6048 B(  0-W ,  9-P ) :   0.5010
B(  0-W , 15-H ) :   0.1110 B(  0-W , 17-P ) :   0.5055 B(  0-W , 19-H ) :   0.1037
B(  0-W , 26-C ) :   0.1038 B(  0-W , 38-C ) :   0.1449 B(  0-W , 42-C ) :   0.1366
B(  0-W , 52-C ) :   0.1364 B(  0-W , 55-C ) :   0.1515 B(  1-C ,  2-O ) :   1.7610
B(  1-C ,  5-C ) :   0.1954 B(  3-C ,  4-O ) :   1.4668 B(  5-C ,  6-O ) :   1.7650
B(  5-C ,  7-H ) :  -0.1838 B(  5-C ,  8-H ) :  -0.1718 B(  5-C ,  9-P ) :  -0.1295
B(  5-C , 17-P ) :  -0.1231 B(  7-H ,  8-H ) :   2.6023 B(  7-H ,  9-P ) :  -0.4787
B(  7-H , 10-C ) :  -0.2008 B(  7-H , 12-C ) :   0.2490 B(  7-H , 17-P ) :   0.1125
B(  7-H , 20-C ) :  -0.2552 B(  7-H , 38-C ) :   0.6598 B(  7-H , 39-H ) :  -0.1212
B(  7-H , 40-H ) :  -0.2185 B(  7-H , 42-C ) :  -0.2562 B(  7-H , 44-H ) :  -0.2400
B(  7-H , 52-C ) :   0.2816 B(  7-H , 55-C ) :  -0.5031 B(  7-H , 56-H ) :   0.1332
B(  7-H , 60-H ) :   0.1085 B(  7-H , 62-H ) :   0.1028 B(  8-H ,  9-P ) :   0.1322
B(  8-H , 12-C ) :  -0.2567 B(  8-H , 17-P ) :  -0.4470 B(  8-H , 20-C ) :   0.2477
B(  8-H , 38-C ) :  -0.5131 B(  8-H , 39-H ) :   0.1087 B(  8-H , 40-H ) :   0.1091
B(  8-H , 42-C ) :   0.2743 B(  8-H , 44-H ) :   0.1327 B(  8-H , 52-C ) :  -0.2632
B(  8-H , 55-C ) :   0.6400 B(  8-H , 56-H ) :  -0.2395 B(  8-H , 59-C ) :  -0.1999
B(  8-H , 60-H ) :  -0.1212 B(  8-H , 62-H ) :  -0.2097 B(  9-P , 10-C ) :   0.5418
B(  9-P , 11-H ) :  -0.2309 B(  9-P , 12-C ) :  -0.1549 B(  9-P , 13-H ) :  -0.2259
B(  9-P , 14-C ) :   0.8803 B(  9-P , 20-C ) :   0.1770 B(  9-P , 22-C ) :   0.3380
B(  9-P , 26-C ) :   0.5127 B(  9-P , 30-C ) :   0.2879 B(  9-P , 34-C ) :   0.1855
B(  9-P , 36-H ) :  -0.1141 B(  9-P , 38-C ) :   0.2387 B(  9-P , 42-C ) :   0.4500
B( 10-C , 11-H ) :  -0.1969 B( 10-C , 12-C ) :   0.1823 B( 10-C , 14-C ) :   0.4758
B( 10-C , 38-C ) :  -0.7581 B( 10-C , 40-H ) :  -0.2702 B( 10-C , 41-H ) :  -0.1742
B( 10-C , 42-C ) :  -1.0802 B( 10-C , 43-H ) :  -0.2505 B( 10-C , 44-H ) :  -0.3013
B( 11-H , 38-C ) :  -0.1167 B( 11-H , 42-C ) :  -0.2515 B( 12-C , 13-H ) :   0.3424
B( 12-C , 14-C ) :   0.2515 B( 12-C , 15-H ) :  -0.1186 B( 12-C , 17-P ) :   0.1706
B( 12-C , 22-C ) :  -0.8125 B( 12-C , 24-H ) :  -0.3792 B( 12-C , 25-H ) :  -0.1945
B( 12-C , 26-C ) :  -0.6976 B( 12-C , 28-H ) :  -0.1162 B( 12-C , 29-H ) :  -0.3259
B( 12-C , 30-C ) :  -0.1130 B( 12-C , 34-C ) :   0.1069 B( 13-H , 22-C ) :  -0.4485
B( 13-H , 23-H ) :   0.1046 B( 13-H , 26-C ) :  -0.2620 B( 14-C , 15-H ) :   0.1799
B( 14-C , 30-C ) :  -1.2370 B( 14-C , 32-H ) :  -0.2674 B( 14-C , 33-H ) :  -0.2677
B( 14-C , 34-C ) :  -0.9885 B( 14-C , 36-H ) :  -0.3135 B( 14-C , 37-H ) :  -0.2221
B( 15-H , 30-C ) :  -0.2176 B( 15-H , 34-C ) :  -0.1583 B( 16-C , 17-P ) :   0.8749
B( 16-C , 19-H ) :   0.1699 B( 16-C , 20-C ) :   0.2508 B( 16-C , 46-C ) :  -1.2362
B( 16-C , 47-H ) :  -0.2668 B( 16-C , 49-H ) :  -0.2670 B( 16-C , 50-C ) :  -0.9877
B( 16-C , 51-H ) :  -0.2234 B( 16-C , 53-H ) :  -0.3118 B( 16-C , 59-C ) :   0.4758
B( 17-P , 18-H ) :  -0.2333 B( 17-P , 20-C ) :  -0.1429 B( 17-P , 21-H ) :  -0.2268
B( 17-P , 46-C ) :   0.2961 B( 17-P , 50-C ) :   0.1912 B( 17-P , 52-C ) :   0.4539
B( 17-P , 53-H ) :  -0.1126 B( 17-P , 55-C ) :   0.2396 B( 17-P , 59-C ) :   0.5236
B( 17-P , 63-C ) :   0.3321 B( 17-P , 67-C ) :   0.4975 B( 18-H , 52-C ) :  -0.2539
B( 18-H , 55-C ) :  -0.1164 B( 18-H , 59-C ) :  -0.1900 B( 19-H , 20-C ) :  -0.1179
B( 19-H , 46-C ) :  -0.2179 B( 19-H , 50-C ) :  -0.1589 B( 20-C , 21-H ) :   0.3429
B( 20-C , 46-C ) :  -0.1143 B( 20-C , 50-C ) :   0.1062 B( 20-C , 59-C ) :   0.1784
B( 20-C , 63-C ) :  -0.8122 B( 20-C , 65-H ) :  -0.1941 B( 20-C , 66-H ) :  -0.3791
B( 20-C , 67-C ) :  -0.6900 B( 20-C , 68-H ) :  -0.3267 B( 20-C , 69-H ) :  -0.1171
B( 21-H , 63-C ) :  -0.4519 B( 21-H , 64-H ) :   0.1039 B( 21-H , 67-C ) :  -0.2629
B( 22-C , 23-H ) :   0.1578 B( 22-C , 24-H ) :   1.1491 B( 22-C , 25-H ) :   0.9553
B( 22-C , 26-C ) :  -0.2624 B( 22-C , 30-C ) :   0.1376 B( 23-H , 25-H ) :   0.1261
B( 24-H , 25-H ) :   0.2153 B( 26-C , 27-H ) :   0.3636 B( 26-C , 28-H ) :   1.1421
B( 26-C , 29-H ) :   1.1444 B( 28-H , 29-H ) :   0.3184 B( 30-C , 31-H ) :   0.3506
B( 30-C , 32-H ) :   1.0293 B( 30-C , 33-H ) :   1.0069 B( 30-C , 34-C ) :  -0.2400
B( 32-H , 33-H ) :   0.2108 B( 34-C , 35-H ) :   0.2145 B( 34-C , 36-H ) :   1.1909
B( 34-C , 37-H ) :   1.0564 B( 36-H , 37-H ) :   0.2503 B( 38-C , 39-H ) :   0.1572
B( 38-C , 40-H ) :   1.1312 B( 38-C , 41-H ) :   1.0640 B( 38-C , 42-C ) :  -0.2673
B( 40-H , 41-H ) :   0.2237 B( 42-C , 43-H ) :   1.1198 B( 42-C , 44-H ) :   1.1750
B( 43-H , 44-H ) :   0.3874 B( 46-C , 47-H ) :   1.0283 B( 46-C , 48-H ) :   0.3498
B( 46-C , 49-H ) :   1.0086 B( 46-C , 50-C ) :  -0.2420 B( 46-C , 63-C ) :   0.1385
B( 47-H , 49-H ) :   0.2106 B( 50-C , 51-H ) :   1.0598 B( 50-C , 53-H ) :   1.1856
B( 50-C , 54-H ) :   0.2139 B( 51-H , 53-H ) :   0.2515 B( 52-C , 55-C ) :  -0.2674
B( 52-C , 56-H ) :   1.1755 B( 52-C , 58-H ) :   1.1238 B( 52-C , 59-C ) :  -1.0956
B( 55-C , 59-C ) :  -0.7480 B( 55-C , 60-H ) :   0.1544 B( 55-C , 61-H ) :   1.0653
B( 55-C , 62-H ) :   1.1370 B( 56-H , 58-H ) :   0.3863 B( 56-H , 59-C ) :  -0.3024
B( 58-H , 59-C ) :  -0.2515 B( 59-C , 61-H ) :  -0.1728 B( 59-C , 62-H ) :  -0.2733
B( 61-H , 62-H ) :   0.2234 B( 63-C , 64-H ) :   0.1598 B( 63-C , 65-H ) :   0.9523
B( 63-C , 66-H ) :   1.1455 B( 63-C , 67-C ) :  -0.2603 B( 64-H , 65-H ) :   0.1258
B( 65-H , 66-H ) :   0.2142 B( 67-C , 68-H ) :   1.1450 B( 67-C , 69-H ) :   1.1463
B( 67-C , 70-H ) :   0.3620 B( 68-H , 69-H ) :   0.3191

Dispersion correction           -0.021020320
FINAL SINGLE POINT ENERGY     -1801.987700379941

DIPOLE MOMENT
-------------
                                X             Y             Z
Electronic contribution:      0.02007      -1.49396      17.18306
Nuclear contribution   :     -0.02072       1.50197     -16.46211
                        -----------------------------------------
Total Dipole Moment    :     -0.00065       0.00801       0.72096
                        -----------------------------------------
Magnitude (a.u.)       :      0.72100
Magnitude (Debye)      :      1.83265

Rotational constants in cm-1:     0.008070     0.003719     0.003518
Rotational constants in MHz :   241.945038   111.491092   105.477311

                             ****ORCA TERMINATED NORMALLY****
TOTAL RUN TIME: 0 days 1 hours 43 minutes 44 seconds 197 msec
