                         Program Version 4.2.0 -  RELEASE  -
|  1> #
|  2> # MOR25_pr01 M06-D3/Def2-TZVPPD
|  3> #
|  4> ! m06 d3zero def2-tzvppd def2/jk grid4 nofinalgrid
|  5>
|  6> *xyz 0 1
|  7> Cr      -0.000002    0.000001   -0.000002
|  8> O       -2.697134   -0.646688    1.294578
|  9> C       -1.683963   -0.403751    0.808266
| 10> C        0.796729   -1.469777    0.925736
| 11> O        1.276107   -2.354083    1.482723
| 12> C        1.683955    0.403738   -0.808274
| 13> O        2.697131    0.646654   -1.294589
| 14> C        0.426065    1.152703    1.463476
| 15> O        0.682414    1.846242    2.344001
| 16> C       -0.426072   -1.152714   -1.463481
| 17> O       -0.682416   -1.846267   -2.343994
| 18> C       -0.796727    1.469805   -0.925736
| 19> O       -1.276085    2.354134   -1.482702
| 20> *
| 21>
| 22> %maxcore 5000
| 23>
| 24> %pal
| 25> nprocs = 24
| 26> end
| 27>
| 28>
| 29>                          ****END OF INPUT****

CARTESIAN COORDINATES (ANGSTROEM)
---------------------------------
  Cr    -0.000002    0.000001   -0.000002
  O     -2.697134   -0.646688    1.294578
  C     -1.683963   -0.403751    0.808266
  C      0.796729   -1.469777    0.925736
  O      1.276107   -2.354083    1.482723
  C      1.683955    0.403738   -0.808274
  O      2.697131    0.646654   -1.294589
  C      0.426065    1.152703    1.463476
  O      0.682414    1.846242    2.344001
  C     -0.426072   -1.152714   -1.463481
  O     -0.682416   -1.846267   -2.343994
  C     -0.796727    1.469805   -0.925736
  O     -1.276085    2.354134   -1.482702

 Total Charge           Charge          ....    0
 Multiplicity           Mult            ....    1
 Number of Electrons    NEL             ....  108
 Basis Dimension        Dim             ....  529

ORBITAL ENERGIES
----------------

  NO   OCC          E(Eh)            E(eV)
   0   2.0000    -216.023593     -5878.3008
   1   2.0000     -24.968780      -679.4350
   2   2.0000     -21.184052      -576.4474
   3   2.0000     -21.184052      -576.4473
   4   2.0000     -21.184050      -576.4473
   5   2.0000     -19.306893      -525.3673
   6   2.0000     -19.306890      -525.3672
   7   2.0000     -19.306881      -525.3669
   8   2.0000     -19.306875      -525.3668
   9   2.0000     -19.306874      -525.3668
  10   2.0000     -19.306865      -525.3665
  11   2.0000     -10.375533      -282.3326
  12   2.0000     -10.375523      -282.3323
  13   2.0000     -10.375510      -282.3320
  14   2.0000     -10.375506      -282.3319
  15   2.0000     -10.375487      -282.3313
  16   2.0000     -10.375468      -282.3308
  17   2.0000      -2.969594       -80.8068
  18   2.0000      -1.893385       -51.5216
  19   2.0000      -1.893384       -51.5216
  20   2.0000      -1.893376       -51.5214
  21   2.0000      -1.171902       -31.8891
  22   2.0000      -1.170937       -31.8628
  23   2.0000      -1.170935       -31.8628
  24   2.0000      -1.170931       -31.8626
  25   2.0000      -1.170560       -31.8526
  26   2.0000      -1.170556       -31.8525
  27   2.0000      -0.637833       -17.3563
  28   2.0000      -0.594668       -16.1817
  29   2.0000      -0.594665       -16.1817
  30   2.0000      -0.594661       -16.1815
  31   2.0000      -0.591434       -16.0937
  32   2.0000      -0.591430       -16.0936
  33   2.0000      -0.524572       -14.2743
  34   2.0000      -0.507999       -13.8234
  35   2.0000      -0.507997       -13.8233
  36   2.0000      -0.507996       -13.8233
  37   2.0000      -0.503229       -13.6936
  38   2.0000      -0.503225       -13.6934
  39   2.0000      -0.503218       -13.6933
  40   2.0000      -0.489861       -13.3298
  41   2.0000      -0.489860       -13.3298
  42   2.0000      -0.489855       -13.3296
  43   2.0000      -0.483350       -13.1526
  44   2.0000      -0.483349       -13.1526
  45   2.0000      -0.483347       -13.1525
  46   2.0000      -0.470020       -12.7899
  47   2.0000      -0.470012       -12.7897
  48   2.0000      -0.435037       -11.8379
  49   2.0000      -0.435027       -11.8377
  50   2.0000      -0.435004       -11.8371
  51   2.0000      -0.269347        -7.3293
  52   2.0000      -0.269341        -7.3291
  53   2.0000      -0.269335        -7.3290
  54   0.0000      -0.055704        -1.5158
  55   0.0000      -0.055673        -1.5149
  56   0.0000      -0.055656        -1.5145
  57   0.0000      -0.039938        -1.0868
  58   0.0000      -0.036643        -0.9971

MULLIKEN ATOMIC CHARGES
-----------------------
   0 Cr:   -0.166892
   1 O :   -0.416171
   2 C :    0.444082
   3 C :    0.443444
   4 O :   -0.416035
   5 C :    0.444175
   6 O :   -0.416216
   7 C :    0.444336
   8 O :   -0.416272
   9 C :    0.444188
  10 O :   -0.416221
  11 C :    0.443671
  12 O :   -0.416090
Sum of atomic charges:    0.0000000

LOEWDIN ATOMIC CHARGES
----------------------
   0 Cr:   -0.455731
   1 O :    0.146351
   2 C :   -0.070371
   3 C :   -0.070397
   4 O :    0.146317
   5 C :   -0.070374
   6 O :    0.146349
   7 C :   -0.070365
   8 O :    0.146323
   9 C :   -0.070360
  10 O :    0.146325
  11 C :   -0.070386
  12 O :    0.146318

  Mayer bond orders larger than 0.100000
B(  0-Cr,  2-C ) :   0.9101 B(  0-Cr,  3-C ) :   0.9116 B(  0-Cr,  5-C ) :   0.9110
B(  0-Cr,  7-C ) :   0.9107 B(  0-Cr,  9-C ) :   0.9109 B(  0-Cr, 11-C ) :   0.9120
B(  1-O ,  2-C ) :   1.6628 B(  3-C ,  4-O ) :   1.6622 B(  5-C ,  6-O ) :   1.6630
B(  7-C ,  8-O ) :   1.6618 B(  9-C , 10-O ) :   1.6621 B( 11-C , 12-O ) :   1.6621

Dispersion correction           -0.002039788
FINAL SINGLE POINT ENERGY     -1724.443658718837

DIPOLE MOMENT
-------------
                                X             Y             Z
Electronic contribution:     -0.00004       0.00001      -0.00004
Nuclear contribution   :      0.00001      -0.00000       0.00001
                        -----------------------------------------
Total Dipole Moment    :     -0.00004       0.00001      -0.00003
                        -----------------------------------------
Magnitude (a.u.)       :      0.00005
Magnitude (Debye)      :      0.00013

Rotational constants in cm-1:     0.021751     0.021751     0.021751
Rotational constants in MHz :   652.090818   652.088663   652.088001

                             ****ORCA TERMINATED NORMALLY****
TOTAL RUN TIME: 0 days 0 hours 1 minutes 51 seconds 676 msec
