                         Program Version 4.2.0 -  RELEASE  -
|  1> #
|  2> # MOR22_pcy3 M06-D3/Def2-TZVPPD
|  3> #
|  4> ! m06 d3zero def2-tzvppd def2/jk grid4 nofinalgrid
|  5>
|  6> *xyz 0 1
|  7> P       -0.216171   -0.083077   -1.104749
|  8> C        0.505342    1.551445   -0.512411
|  9> C        0.372168    1.952615    0.967298
| 10> C        0.853698    3.397029    1.180070
| 11> C        2.300662    3.578910    0.704200
| 12> C        2.457928    3.151362   -0.760734
| 13> C        1.965268    1.712769   -0.974950
| 14> C        0.795470   -1.465851   -0.339173
| 15> C        1.194026   -1.376002    1.141683
| 16> C        1.830829   -2.691519    1.617818
| 17> C        3.044522   -3.062049    0.755351
| 18> C        2.669205   -3.127202   -0.731177
| 19> C        2.022807   -1.816580   -1.203888
| 20> C       -1.786787   -0.169467   -0.086099
| 21> C       -2.713096    0.996882   -0.481425
| 22> C       -4.042154    0.954203    0.285800
| 23> C       -4.758728   -0.385405    0.080261
| 24> C       -3.846658   -1.555269    0.467941
| 25> C       -2.516136   -1.508613   -0.298163
| 26> H       -0.086881    2.275758   -1.095374
| 27> H        0.969845    1.279400    1.591405
| 28> H       -0.665694    1.858440    1.303963
| 29> H        0.763179    3.670246    2.238833
| 30> H        0.199154    4.078898    0.617939
| 31> H        2.616561    4.621342    0.833145
| 32> H        2.964320    2.965719    1.331124
| 33> H        1.874427    3.827995   -1.401227
| 34> H        3.505668    3.240568   -1.073514
| 35> H        2.061196    1.427054   -2.029468
| 36> H        2.603163    1.029346   -0.398698
| 37> H        0.103060   -2.317100   -0.439871
| 38> H        1.082328   -3.494681    1.556078
| 39> H        0.325749   -1.129652    1.763601
| 40> H        1.922184   -0.564787    1.270256
| 41> H        2.123181   -2.608981    2.672179
| 42> H        3.467034   -4.019422    1.084011
| 43> H        3.828662   -2.303820    0.895790
| 44> H        3.555664   -3.350052   -1.337889
| 45> H        1.959466   -3.952268   -0.888607
| 46> H        1.724465   -1.892063   -2.255831
| 47> H        2.762591   -1.008464   -1.141586
| 48> H       -1.543753   -0.076214    0.982532
| 49> H       -2.216101    1.957671   -0.306445
| 50> H       -2.910289    0.936504   -1.561343
| 51> H       -3.843829    1.098520    1.357699
| 52> H       -4.683867    1.784681   -0.033466
| 53> H       -5.041866   -0.483893   -0.977569
| 54> H       -5.687452   -0.415984    0.663015
| 55> H       -4.350272   -2.511559    0.279900
| 56> H       -3.640750   -1.510603    1.547174
| 57> H       -1.884435   -2.344750    0.021762
| 58> H       -2.704341   -1.645246   -1.372687
| 59> *
| 60>
| 61> %maxcore 5000
| 62>
| 63> %pal
| 64> nprocs = 24
| 65> end
| 66>
| 67>
| 68>                          ****END OF INPUT****

CARTESIAN COORDINATES (ANGSTROEM)
---------------------------------
  P     -0.216171   -0.083077   -1.104749
  C      0.505342    1.551445   -0.512411
  C      0.372168    1.952615    0.967298
  C      0.853698    3.397029    1.180070
  C      2.300662    3.578910    0.704200
  C      2.457928    3.151362   -0.760734
  C      1.965268    1.712769   -0.974950
  C      0.795470   -1.465851   -0.339173
  C      1.194026   -1.376002    1.141683
  C      1.830829   -2.691519    1.617818
  C      3.044522   -3.062049    0.755351
  C      2.669205   -3.127202   -0.731177
  C      2.022807   -1.816580   -1.203888
  C     -1.786787   -0.169467   -0.086099
  C     -2.713096    0.996882   -0.481425
  C     -4.042154    0.954203    0.285800
  C     -4.758728   -0.385405    0.080261
  C     -3.846658   -1.555269    0.467941
  C     -2.516136   -1.508613   -0.298163
  H     -0.086881    2.275758   -1.095374
  H      0.969845    1.279400    1.591405
  H     -0.665694    1.858440    1.303963
  H      0.763179    3.670246    2.238833
  H      0.199154    4.078898    0.617939
  H      2.616561    4.621342    0.833145
  H      2.964320    2.965719    1.331124
  H      1.874427    3.827995   -1.401227
  H      3.505668    3.240568   -1.073514
  H      2.061196    1.427054   -2.029468
  H      2.603163    1.029346   -0.398698
  H      0.103060   -2.317100   -0.439871
  H      1.082328   -3.494681    1.556078
  H      0.325749   -1.129652    1.763601
  H      1.922184   -0.564787    1.270256
  H      2.123181   -2.608981    2.672179
  H      3.467034   -4.019422    1.084011
  H      3.828662   -2.303820    0.895790
  H      3.555664   -3.350052   -1.337889
  H      1.959466   -3.952268   -0.888607
  H      1.724465   -1.892063   -2.255831
  H      2.762591   -1.008464   -1.141586
  H     -1.543753   -0.076214    0.982532
  H     -2.216101    1.957671   -0.306445
  H     -2.910289    0.936504   -1.561343
  H     -3.843829    1.098520    1.357699
  H     -4.683867    1.784681   -0.033466
  H     -5.041866   -0.483893   -0.977569
  H     -5.687452   -0.415984    0.663015
  H     -4.350272   -2.511559    0.279900
  H     -3.640750   -1.510603    1.547174
  H     -1.884435   -2.344750    0.021762
  H     -2.704341   -1.645246   -1.372687

 Total Charge           Charge          ....    0
 Multiplicity           Mult            ....    1
 Number of Electrons    NEL             ....  156
 Basis Dimension        Dim             .... 1275

ORBITAL ENERGIES
----------------

  NO   OCC          E(Eh)            E(eV)
   0   2.0000     -77.198073     -2100.6664
   1   2.0000     -10.237310      -278.5714
   2   2.0000     -10.236316      -278.5443
   3   2.0000     -10.235984      -278.5353
   4   2.0000     -10.231919      -278.4247
   5   2.0000     -10.231619      -278.4165
   6   2.0000     -10.231008      -278.3999
   7   2.0000     -10.230995      -278.3995
   8   2.0000     -10.229723      -278.3649
   9   2.0000     -10.229665      -278.3633
  10   2.0000     -10.229412      -278.3564
  11   2.0000     -10.229309      -278.3536
  12   2.0000     -10.229197      -278.3506
  13   2.0000     -10.229146      -278.3492
  14   2.0000     -10.228843      -278.3410
  15   2.0000     -10.228633      -278.3352
  16   2.0000     -10.228065      -278.3198
  17   2.0000     -10.228041      -278.3191
  18   2.0000     -10.227796      -278.3125
  19   2.0000      -6.625570      -180.2909
  20   2.0000      -4.746622      -129.1622
  21   2.0000      -4.746442      -129.1572
  22   2.0000      -4.741785      -129.0305
  23   2.0000      -0.847595       -23.0642
  24   2.0000      -0.838205       -22.8087
  25   2.0000      -0.837835       -22.7987
  26   2.0000      -0.770321       -20.9615
  27   2.0000      -0.752443       -20.4750
  28   2.0000      -0.750956       -20.4346
  29   2.0000      -0.748628       -20.3712
  30   2.0000      -0.744163       -20.2497
  31   2.0000      -0.743238       -20.2245
  32   2.0000      -0.649906       -17.6848
  33   2.0000      -0.623352       -16.9623
  34   2.0000      -0.620666       -16.8892
  35   2.0000      -0.613678       -16.6990
  36   2.0000      -0.607388       -16.5279
  37   2.0000      -0.606883       -16.5141
  38   2.0000      -0.572513       -15.5789
  39   2.0000      -0.562884       -15.3168
  40   2.0000      -0.558495       -15.1974
  41   2.0000      -0.535873       -14.5819
  42   2.0000      -0.487966       -13.2782
  43   2.0000      -0.484338       -13.1795
  44   2.0000      -0.477416       -12.9911
  45   2.0000      -0.456317       -12.4170
  46   2.0000      -0.450868       -12.2687
  47   2.0000      -0.449792       -12.2395
  48   2.0000      -0.448916       -12.2156
  49   2.0000      -0.447262       -12.1706
  50   2.0000      -0.444258       -12.0889
  51   2.0000      -0.439974       -11.9723
  52   2.0000      -0.427209       -11.6249
  53   2.0000      -0.421068       -11.4578
  54   2.0000      -0.397875       -10.8267
  55   2.0000      -0.394009       -10.7215
  56   2.0000      -0.390285       -10.6202
  57   2.0000      -0.388469       -10.5708
  58   2.0000      -0.387859       -10.5542
  59   2.0000      -0.385217       -10.4823
  60   2.0000      -0.369595       -10.0572
  61   2.0000      -0.366982        -9.9861
  62   2.0000      -0.361816        -9.8455
  63   2.0000      -0.356111        -9.6903
  64   2.0000      -0.355373        -9.6702
  65   2.0000      -0.352396        -9.5892
  66   2.0000      -0.346601        -9.4315
  67   2.0000      -0.345613        -9.4046
  68   2.0000      -0.337783        -9.1915
  69   2.0000      -0.332521        -9.0484
  70   2.0000      -0.324397        -8.8273
  71   2.0000      -0.320993        -8.7347
  72   2.0000      -0.315174        -8.5763
  73   2.0000      -0.313467        -8.5299
  74   2.0000      -0.310953        -8.4615
  75   2.0000      -0.280035        -7.6201
  76   2.0000      -0.279484        -7.6052
  77   2.0000      -0.222036        -6.0419
  78   0.0000      -0.027733        -0.7547
  79   0.0000      -0.021566        -0.5868
  80   0.0000      -0.020272        -0.5516
  81   0.0000      -0.015945        -0.4339
  82   0.0000      -0.008583        -0.2336

MULLIKEN ATOMIC CHARGES
-----------------------
   0 P :   -1.453632
   1 C :    1.129562
   2 C :   -1.774286
   3 C :   -2.130443
   4 C :   -1.682265
   5 C :   -1.932748
   6 C :   -1.889414
   7 C :    1.733262
   8 C :   -1.541161
   9 C :   -1.908724
  10 C :   -1.713072
  11 C :   -1.995897
  12 C :   -2.086911
  13 C :    1.518242
  14 C :   -2.082058
  15 C :   -1.830258
  16 C :   -1.852301
  17 C :   -1.755299
  18 C :   -2.057704
  19 H :    1.489217
  20 H :    0.645003
  21 H :    0.630447
  22 H :    0.858660
  23 H :    0.768997
  24 H :    0.850034
  25 H :    0.636803
  26 H :    0.749443
  27 H :    0.772892
  28 H :    0.954882
  29 H :    0.411686
  30 H :    0.889304
  31 H :    0.717544
  32 H :    0.574654
  33 H :    0.510576
  34 H :    0.829979
  35 H :    0.842299
  36 H :    0.640882
  37 H :    0.766610
  38 H :    0.779434
  39 H :    1.121778
  40 H :    0.467805
  41 H :    0.538789
  42 H :    0.708851
  43 H :    0.980301
  44 H :    0.635824
  45 H :    0.908596
  46 H :    0.685610
  47 H :    0.821133
  48 H :    0.856894
  49 H :    0.686293
  50 H :    0.734008
  51 H :    0.839877
Sum of atomic charges:   -0.0000000

LOEWDIN ATOMIC CHARGES
----------------------
   0 P :    1.149425
   1 C :   -0.335121
   2 C :   -0.037472
   3 C :   -0.017537
   4 C :   -0.025928
   5 C :   -0.021555
   6 C :   -0.059759
   7 C :   -0.337278
   8 C :   -0.038981
   9 C :   -0.018832
  10 C :   -0.026718
  11 C :   -0.023808
  12 C :   -0.058523
  13 C :   -0.359812
  14 C :   -0.060813
  15 C :   -0.021393
  16 C :   -0.029077
  17 C :   -0.022778
  18 C :   -0.054581
  19 H :   -0.007587
  20 H :    0.004783
  21 H :   -0.001141
  22 H :    0.015324
  23 H :    0.023729
  24 H :    0.013543
  25 H :    0.023022
  26 H :    0.023002
  27 H :    0.014899
  28 H :    0.014138
  29 H :    0.004111
  30 H :   -0.018568
  31 H :    0.023181
  32 H :    0.010639
  33 H :    0.005921
  34 H :    0.014986
  35 H :    0.013356
  36 H :    0.022927
  37 H :    0.014326
  38 H :    0.022500
  39 H :    0.008997
  40 H :    0.003559
  41 H :   -0.007899
  42 H :   -0.002248
  43 H :    0.023998
  44 H :    0.023679
  45 H :    0.014985
  46 H :    0.022911
  47 H :    0.013690
  48 H :    0.014461
  49 H :    0.023673
  50 H :   -0.000516
  51 H :    0.024159

  Mayer bond orders larger than 0.100000
B(  0-P ,  1-C ) :   0.9586 B(  0-P ,  2-C ) :   0.2162 B(  0-P ,  6-C ) :   0.2984
B(  0-P ,  7-C ) :   0.3784 B(  0-P ,  8-C ) :   0.2411 B(  0-P , 11-C ) :   0.1290
B(  0-P , 12-C ) :   0.1510 B(  0-P , 13-C ) :   0.5913 B(  0-P , 14-C ) :   0.3871
B(  0-P , 19-H ) :  -0.3135 B(  0-P , 28-H ) :  -0.2303 B(  0-P , 30-H ) :  -0.2092
B(  0-P , 39-H ) :  -0.3673 B(  0-P , 42-H ) :  -0.1076 B(  0-P , 43-H ) :  -0.1308
B(  0-P , 51-H ) :  -0.1200 B(  1-C ,  3-C ) :  -0.2307 B(  1-C ,  4-C ) :   0.3326
B(  1-C ,  5-C ) :   0.1309 B(  1-C ,  6-C ) :  -0.1662 B(  1-C ,  7-C ) :   0.2825
B(  1-C , 19-H ) :  -0.1000 B(  1-C , 20-H ) :  -0.2180 B(  1-C , 21-H ) :  -0.1246
B(  1-C , 29-H ) :  -0.3854 B(  1-C , 32-H ) :  -0.1106 B(  2-C ,  3-C ) :   0.4944
B(  2-C ,  4-C ) :   0.1696 B(  2-C ,  5-C ) :   0.1939 B(  2-C ,  6-C ) :   0.2634
B(  2-C ,  8-C ) :  -0.1244 B(  2-C , 19-H ) :  -0.6698 B(  2-C , 20-H ) :   1.1164
B(  2-C , 21-H ) :   0.7599 B(  2-C , 23-H ) :  -0.1289 B(  3-C ,  4-C ) :   0.4102
B(  3-C ,  6-C ) :   0.1801 B(  3-C , 20-H ) :  -0.3904 B(  3-C , 21-H ) :   0.2204
B(  3-C , 22-H ) :   0.3102 B(  3-C , 23-H ) :   0.5921 B(  4-C ,  5-C ) :   0.3989
B(  4-C , 24-H ) :   0.3206 B(  4-C , 25-H ) :   0.7055 B(  5-C ,  6-C ) :   0.3808
B(  5-C , 26-H ) :   0.5487 B(  5-C , 27-H ) :   0.4858 B(  6-C , 19-H ) :  -0.4140
B(  6-C , 29-H ) :   1.4191 B(  7-C ,  8-C ) :  -0.1252 B(  7-C ,  9-C ) :  -0.2159
B(  7-C , 10-C ) :   0.2403 B(  7-C , 12-C ) :  -0.7683 B(  7-C , 18-C ) :   0.1621
B(  7-C , 30-H ) :   0.9033 B(  7-C , 33-H ) :  -0.2695 B(  7-C , 39-H ) :   0.2093
B(  7-C , 40-H ) :  -0.3342 B(  8-C , 10-C ) :   0.2500 B(  8-C , 11-C ) :   0.3232
B(  8-C , 13-C ) :   0.1608 B(  8-C , 30-H ) :  -0.2837 B(  8-C , 32-H ) :   0.6088
B(  8-C , 33-H ) :   1.1792 B(  9-C , 10-C ) :   0.3248 B(  9-C , 12-C ) :   0.1667
B(  9-C , 30-H ) :   0.1799 B(  9-C , 31-H ) :   0.6257 B(  9-C , 32-H ) :   0.1883
B(  9-C , 34-H ) :   0.3917 B( 10-C , 11-C ) :   0.4135 B( 10-C , 33-H ) :  -0.1017
B( 10-C , 35-H ) :   0.3371 B( 10-C , 36-H ) :   0.7023 B( 11-C , 12-C ) :   0.6588
B( 11-C , 30-H ) :  -0.2262 B( 11-C , 37-H ) :   0.5250 B( 11-C , 38-H ) :   0.4746
B( 12-C , 30-H ) :  -0.1718 B( 12-C , 39-H ) :  -0.3477 B( 12-C , 40-H ) :   1.4138
B( 13-C , 14-C ) :  -0.4589 B( 13-C , 16-C ) :   0.2276 B( 13-C , 18-C ) :  -0.9709
B( 13-C , 41-H ) :   0.8679 B( 13-C , 42-H ) :  -0.1482 B( 13-C , 43-H ) :  -0.2225
B( 14-C , 15-C ) :   0.5096 B( 14-C , 16-C ) :   0.1361 B( 14-C , 17-C ) :   0.1240
B( 14-C , 18-C ) :  -0.1670 B( 14-C , 41-H ) :  -0.2603 B( 14-C , 42-H ) :   0.6985
B( 14-C , 43-H ) :   0.3070 B( 14-C , 44-H ) :  -0.1375 B( 14-C , 50-H ) :  -0.1170
B( 15-C , 16-C ) :   0.5142 B( 15-C , 42-H ) :   0.2244 B( 15-C , 43-H ) :  -0.2875
B( 15-C , 44-H ) :   0.8946 B( 15-C , 45-H ) :   0.1548 B( 16-C , 17-C ) :   0.4495
B( 16-C , 18-C ) :   0.1750 B( 16-C , 46-H ) :   0.6101 B( 16-C , 47-H ) :   0.4053
B( 17-C , 48-H ) :   0.3015 B( 17-C , 49-H ) :   0.7374 B( 17-C , 50-H ) :   0.2023
B( 18-C , 41-H ) :  -0.1648 B( 18-C , 50-H ) :   0.5744 B( 18-C , 51-H ) :   0.4409
B( 20-H , 21-H ) :   0.1890 B( 22-H , 23-H ) :   0.1152 B( 24-H , 25-H ) :   0.1066
B( 26-H , 27-H ) :   0.1302 B( 28-H , 29-H ) :   0.1756 B( 30-H , 39-H ) :   0.1289
B( 31-H , 34-H ) :   0.1234 B( 32-H , 33-H ) :   0.2659 B( 35-H , 36-H ) :   0.1032
B( 37-H , 38-H ) :   0.1308 B( 41-H , 43-H ) :   0.1296 B( 42-H , 43-H ) :   0.1357
B( 46-H , 47-H ) :   0.1198 B( 50-H , 51-H ) :   0.1920

Dispersion correction           -0.010435905
FINAL SINGLE POINT ENERGY     -1046.870418736856

DIPOLE MOMENT
-------------
                                X             Y             Z
Electronic contribution:     -1.36992      -0.48649      -6.55648
Nuclear contribution   :      1.41899       0.52417       7.05083
                        -----------------------------------------
Total Dipole Moment    :      0.04908       0.03768       0.49435
                        -----------------------------------------
Magnitude (a.u.)       :      0.49821
Magnitude (Debye)      :      1.26634

Rotational constants in cm-1:     0.011612     0.009073     0.005947
Rotational constants in MHz :   348.132374   272.016111   178.294122

                             ****ORCA TERMINATED NORMALLY****
TOTAL RUN TIME: 0 days 0 hours 28 minutes 16 seconds 565 msec
