                         Program Version 4.2.0 -  RELEASE  -
|  1> #
|  2> # MOR20_i2 M06-D3/Def2-TZVPPD
|  3> #
|  4> ! m06 d3zero def2-tzvppd def2/jk grid4 nofinalgrid
|  5>
|  6> *xyz 0 1
|  7> I        0.000000    0.000000    1.341554
|  8> I        0.000000    0.000000   -1.341554
|  9> *
| 10>
| 11> %maxcore 5000
| 12>
| 13> %pal
| 14> nprocs = 24
| 15> end
| 16>
| 17>
| 18>                          ****END OF INPUT****

CARTESIAN COORDINATES (ANGSTROEM)
---------------------------------
  I      0.000000    0.000000    1.341554
  I      0.000000    0.000000   -1.341554

 Total Charge           Charge          ....    0
 Multiplicity           Mult            ....    1
 Number of Electrons    NEL             ....   50
 Basis Dimension        Dim             ....  118

ORBITAL ENERGIES
----------------

  NO   OCC          E(Eh)            E(eV)
   0   2.0000      -6.876254      -187.1124
   1   2.0000      -6.876241      -187.1120
   2   2.0000      -4.923304      -133.9699
   3   2.0000      -4.923144      -133.9656
   4   2.0000      -4.904200      -133.4501
   5   2.0000      -4.904200      -133.4501
   6   2.0000      -4.904187      -133.4497
   7   2.0000      -4.904187      -133.4497
   8   2.0000      -1.987840       -54.0919
   9   2.0000      -1.983626       -53.9772
  10   2.0000      -1.981210       -53.9115
  11   2.0000      -1.981210       -53.9115
  12   2.0000      -1.980031       -53.8794
  13   2.0000      -1.980031       -53.8794
  14   2.0000      -1.964971       -53.4696
  15   2.0000      -1.964954       -53.4691
  16   2.0000      -1.964881       -53.4671
  17   2.0000      -1.964864       -53.4667
  18   2.0000      -0.752859       -20.4863
  19   2.0000      -0.665436       -18.1074
  20   2.0000      -0.377252       -10.2655
  21   2.0000      -0.324592        -8.8326
  22   2.0000      -0.324592        -8.8326
  23   2.0000      -0.263743        -7.1768
  24   2.0000      -0.263743        -7.1768
  25   0.0000      -0.122785        -3.3411
  26   0.0000      -0.016069        -0.4373
  27   0.0000      -0.010555        -0.2872
  28   0.0000      -0.010555        -0.2872
  29   0.0000      -0.004919        -0.1339

MULLIKEN ATOMIC CHARGES
-----------------------
   0 I :    0.000001
   1 I :   -0.000001
Sum of atomic charges:   -0.0000000

LOEWDIN ATOMIC CHARGES
----------------------
   0 I :    0.000000
   1 I :   -0.000000

  Mayer bond orders larger than 0.100000
B(  0-I ,  1-I ) :   1.0170

Dispersion correction           -0.000000659
FINAL SINGLE POINT ENERGY      -595.559257048926

DIPOLE MOMENT
-------------
                                X             Y             Z
Electronic contribution:     -0.00000      -0.00000       0.00000
Nuclear contribution   :      0.00000       0.00000       0.00000
                        -----------------------------------------
Total Dipole Moment    :     -0.00000      -0.00000       0.00000
                        -----------------------------------------
Magnitude (a.u.)       :      0.00000
Magnitude (Debye)      :      0.00000

Rotational constants in cm-1:     0.000000     0.036905     0.036905
Rotational constants in MHz :     0.000000  1106.393636  1106.393636

                             ****ORCA TERMINATED NORMALLY****
TOTAL RUN TIME: 0 days 0 hours 0 minutes 6 seconds 425 msec
