                         Program Version 4.2.0 -  RELEASE  -
|  1> #
|  2> # MOR31_pr20 M06-D3/Def2-TZVPPD
|  3> #
|  4> ! m06 d3zero def2-tzvppd def2/jk grid4 nofinalgrid
|  5>
|  6> *xyz 0 1
|  7> Ir       0.002477   -0.015286    0.083430
|  8> P       -2.348177   -0.226580   -0.058132
|  9> C       -2.872702   -1.550327   -1.188803
| 10> C       -3.160695   -0.601199    1.533451
| 11> H       -2.768983   -1.545856    1.920385
| 12> H       -3.035053    2.092169    0.038161
| 13> H       -4.244853   -0.682241    1.406776
| 14> H       -2.786362    1.529395   -1.637172
| 15> H       -3.965660   -1.602102   -1.229325
| 16> H       -2.934726    0.195116    2.248250
| 17> C       -3.202684    1.268779   -0.660861
| 18> H       -2.461852   -1.335119   -2.177902
| 19> H       -4.277134    1.082313   -0.755690
| 20> H       -2.448990   -2.494963   -0.841403
| 21> P        2.371733   -0.033051   -0.048079
| 22> C        3.118147   -1.146577    1.190097
| 23> C        2.988864   -0.646513   -1.645491
| 24> H        2.993037    2.252530   -0.586719
| 25> H        4.326367    1.397945    0.228668
| 26> H        2.927925    1.991387    1.168046
| 27> C        3.242996    1.555288    0.216058
| 28> H        4.081131   -0.719105   -1.623165
| 29> H        2.539412   -1.627874   -1.816909
| 30> H        4.198017   -1.226939    1.030710
| 31> H        2.645385   -2.126625    1.084325
| 32> H        2.665924    0.027013   -2.441495
| 33> H        2.928294   -0.762471    2.196181
| 34> C        0.041875   -0.376924    1.901008
| 35> O        0.060916   -0.624538    3.028225
| 36> Cl       0.274891   -2.517433   -0.343637
| 37> C       -0.190594    2.003978    0.494123
| 38> O       -0.529496    2.399253    1.599170
| 39> Cl      -0.136178    0.364638   -2.291447
| 40> C        0.062980    3.028488   -0.607541
| 41> H        0.210382    4.010245   -0.149220
| 42> H       -0.815546    3.056386   -1.260585
| 43> H        0.900599    2.750150   -1.247819
| 44> *
| 45>
| 46> %maxcore 5000
| 47>
| 48> %pal
| 49> nprocs = 24
| 50> end
| 51>
| 52>
| 53>                          ****END OF INPUT****

CARTESIAN COORDINATES (ANGSTROEM)
---------------------------------
  Ir     0.002477   -0.015286    0.083430
  P     -2.348177   -0.226580   -0.058132
  C     -2.872702   -1.550327   -1.188803
  C     -3.160695   -0.601199    1.533451
  H     -2.768983   -1.545856    1.920385
  H     -3.035053    2.092169    0.038161
  H     -4.244853   -0.682241    1.406776
  H     -2.786362    1.529395   -1.637172
  H     -3.965660   -1.602102   -1.229325
  H     -2.934726    0.195116    2.248250
  C     -3.202684    1.268779   -0.660861
  H     -2.461852   -1.335119   -2.177902
  H     -4.277134    1.082313   -0.755690
  H     -2.448990   -2.494963   -0.841403
  P      2.371733   -0.033051   -0.048079
  C      3.118147   -1.146577    1.190097
  C      2.988864   -0.646513   -1.645491
  H      2.993037    2.252530   -0.586719
  H      4.326367    1.397945    0.228668
  H      2.927925    1.991387    1.168046
  C      3.242996    1.555288    0.216058
  H      4.081131   -0.719105   -1.623165
  H      2.539412   -1.627874   -1.816909
  H      4.198017   -1.226939    1.030710
  H      2.645385   -2.126625    1.084325
  H      2.665924    0.027013   -2.441495
  H      2.928294   -0.762471    2.196181
  C      0.041875   -0.376924    1.901008
  O      0.060916   -0.624538    3.028225
  Cl     0.274891   -2.517433   -0.343637
  C     -0.190594    2.003978    0.494123
  O     -0.529496    2.399253    1.599170
  Cl    -0.136178    0.364638   -2.291447
  C      0.062980    3.028488   -0.607541
  H      0.210382    4.010245   -0.149220
  H     -0.815546    3.056386   -1.260585
  H      0.900599    2.750150   -1.247819

 Total Charge           Charge          ....    0
 Multiplicity           Mult            ....    1
 Number of Electrons    NEL             ....  172
 Basis Dimension        Dim             .... 1027

ORBITAL ENERGIES
----------------

  NO   OCC          E(Eh)            E(eV)
   0   2.0000    -101.653176     -2766.1236
   1   2.0000    -101.630371     -2765.5030
   2   2.0000     -77.273674     -2102.7236
   3   2.0000     -77.273560     -2102.7205
   4   2.0000     -19.292157      -524.9663
   5   2.0000     -19.199438      -522.4433
   6   2.0000     -10.373894      -282.2880
   7   2.0000     -10.328022      -281.0398
   8   2.0000     -10.258880      -279.1583
   9   2.0000     -10.255789      -279.0742
  10   2.0000     -10.253465      -279.0110
  11   2.0000     -10.250590      -278.9327
  12   2.0000     -10.243992      -278.7532
  13   2.0000     -10.242832      -278.7216
  14   2.0000     -10.234702      -278.5004
  15   2.0000      -9.529311      -259.3057
  16   2.0000      -9.505896      -258.6686
  17   2.0000      -7.235435      -196.8862
  18   2.0000      -7.230937      -196.7638
  19   2.0000      -7.230619      -196.7551
  20   2.0000      -7.211552      -196.2363
  21   2.0000      -7.207804      -196.1343
  22   2.0000      -7.207540      -196.1271
  23   2.0000      -6.699389      -182.2996
  24   2.0000      -6.699251      -182.2959
  25   2.0000      -4.819984      -131.1584
  26   2.0000      -4.819890      -131.1559
  27   2.0000      -4.819559      -131.1469
  28   2.0000      -4.819438      -131.1436
  29   2.0000      -4.817759      -131.0979
  30   2.0000      -4.817563      -131.0926
  31   2.0000      -3.735807      -101.6565
  32   2.0000      -2.085883       -56.7598
  33   2.0000      -2.075612       -56.4803
  34   2.0000      -2.069130       -56.3039
  35   2.0000      -1.156280       -31.4640
  36   2.0000      -1.057135       -28.7661
  37   2.0000      -0.809975       -22.0405
  38   2.0000      -0.806287       -21.9402
  39   2.0000      -0.779015       -21.1981
  40   2.0000      -0.750410       -20.4197
  41   2.0000      -0.746568       -20.3151
  42   2.0000      -0.729781       -19.8583
  43   2.0000      -0.728977       -19.8365
  44   2.0000      -0.722444       -19.6587
  45   2.0000      -0.721658       -19.6373
  46   2.0000      -0.607710       -16.5366
  47   2.0000      -0.584198       -15.8968
  48   2.0000      -0.572846       -15.5879
  49   2.0000      -0.550507       -14.9800
  50   2.0000      -0.512061       -13.9339
  51   2.0000      -0.495820       -13.4919
  52   2.0000      -0.489373       -13.3165
  53   2.0000      -0.480878       -13.0854
  54   2.0000      -0.477700       -12.9989
  55   2.0000      -0.468141       -12.7388
  56   2.0000      -0.465648       -12.6709
  57   2.0000      -0.462331       -12.5807
  58   2.0000      -0.461213       -12.5503
  59   2.0000      -0.457894       -12.4599
  60   2.0000      -0.450559       -12.2603
  61   2.0000      -0.444346       -12.0913
  62   2.0000      -0.439280       -11.9534
  63   2.0000      -0.435280       -11.8446
  64   2.0000      -0.434193       -11.8150
  65   2.0000      -0.429298       -11.6818
  66   2.0000      -0.419002       -11.4016
  67   2.0000      -0.418302       -11.3826
  68   2.0000      -0.394862       -10.7447
  69   2.0000      -0.389265       -10.5924
  70   2.0000      -0.382085       -10.3971
  71   2.0000      -0.379069       -10.3150
  72   2.0000      -0.374026       -10.1778
  73   2.0000      -0.372282       -10.1303
  74   2.0000      -0.370210       -10.0739
  75   2.0000      -0.339560        -9.2399
  76   2.0000      -0.334490        -9.1019
  77   2.0000      -0.328424        -8.9369
  78   2.0000      -0.321023        -8.7355
  79   2.0000      -0.314413        -8.5556
  80   2.0000      -0.290535        -7.9059
  81   2.0000      -0.268011        -7.2929
  82   2.0000      -0.263747        -7.1769
  83   2.0000      -0.253253        -6.8914
  84   2.0000      -0.252928        -6.8825
  85   2.0000      -0.233569        -6.3557
  86   0.0000      -0.038794        -1.0556
  87   0.0000      -0.036998        -1.0068
  88   0.0000      -0.035201        -0.9579
  89   0.0000      -0.031931        -0.8689
  90   0.0000      -0.018688        -0.5085

MULLIKEN ATOMIC CHARGES
-----------------------
   0 Ir:    2.272381
   1 P :    1.139577
   2 C :   -2.062648
   3 C :   -2.229694
   4 H :    0.568970
   5 H :    0.539753
   6 H :    0.731870
   7 H :    0.427013
   8 H :    0.691953
   9 H :    0.553201
  10 C :   -2.045205
  11 H :    0.504111
  12 H :    0.692035
  13 H :    0.465437
  14 P :    1.135547
  15 C :   -2.166603
  16 C :   -2.024867
  17 H :    0.572643
  18 H :    0.747325
  19 H :    0.467892
  20 C :   -2.125292
  21 H :    0.718922
  22 H :    0.504372
  23 H :    0.668290
  24 H :    0.499678
  25 H :    0.470950
  26 H :    0.550204
  27 C :    0.243483
  28 O :   -0.659184
  29 Cl:   -0.657115
  30 C :    0.687895
  31 O :   -0.645617
  32 Cl:   -0.607706
  33 C :   -2.291637
  34 H :    0.751042
  35 H :    0.533907
  36 H :    0.377118
Sum of atomic charges:   -0.0000000

LOEWDIN ATOMIC CHARGES
----------------------
   0 Ir:    0.521108
   1 P :    0.769483
   2 C :   -0.045688
   3 C :   -0.001925
   4 H :   -0.038825
   5 H :   -0.043148
   6 H :   -0.039036
   7 H :   -0.065336
   8 H :   -0.038751
   9 H :   -0.039235
  10 C :   -0.010784
  11 H :   -0.070193
  12 H :   -0.038523
  13 H :   -0.086204
  14 P :    0.765791
  15 C :   -0.023710
  16 C :   -0.048851
  17 H :   -0.054318
  18 H :   -0.039522
  19 H :   -0.038061
  20 C :   -0.000614
  21 H :   -0.038583
  22 H :   -0.076719
  23 H :   -0.039183
  24 H :   -0.078378
  25 H :   -0.076669
  26 H :   -0.044841
  27 C :   -0.402739
  28 O :    0.108657
  29 Cl:   -0.104351
  30 C :   -0.536334
  31 O :   -0.042276
  32 Cl:    0.007968
  33 C :    0.085735
  34 H :   -0.002323
  35 H :   -0.030208
  36 H :   -0.063415

  Mayer bond orders larger than 0.100000
B(  0-Ir,  1-P ) :   0.2734 B(  0-Ir, 14-P ) :   0.3704 B(  0-Ir, 27-C ) :   0.4930
B(  0-Ir, 28-O ) :  -0.1140 B(  0-Ir, 29-Cl) :  -0.2090 B(  0-Ir, 30-C ) :   0.5204
B(  0-Ir, 33-C ) :  -0.1249 B(  1-P ,  2-C ) :   0.4355 B(  1-P ,  3-C ) :   0.2266
B(  1-P ,  4-H ) :  -0.1326 B(  1-P ,  5-H ) :  -0.1031 B(  1-P ,  7-H ) :  -0.1542
B(  1-P ,  9-H ) :  -0.1378 B(  1-P , 10-C ) :   0.4206 B(  1-P , 11-H ) :  -0.1432
B(  1-P , 13-H ) :  -0.1155 B(  1-P , 27-C ) :   0.1756 B(  1-P , 29-Cl) :   0.2498
B(  1-P , 30-C ) :   0.1394 B(  1-P , 32-Cl) :   0.2689 B(  2-C ,  8-H ) :   0.5914
B(  2-C , 11-H ) :   0.8879 B(  2-C , 13-H ) :   0.9302 B(  3-C ,  4-H ) :   0.8109
B(  3-C ,  6-H ) :   0.5061 B(  3-C ,  9-H ) :   0.8933 B(  4-H ,  9-H ) :   0.1297
B(  5-H ,  7-H ) :   0.1621 B(  5-H , 10-C ) :   0.8132 B(  6-H ,  9-H ) :   0.1098
B(  7-H , 10-C ) :   1.0002 B( 10-C , 12-H ) :   0.5744 B( 11-H , 13-H ) :   0.1678
B( 14-P , 15-C ) :   0.2419 B( 14-P , 16-C ) :   0.5310 B( 14-P , 17-H ) :  -0.1081
B( 14-P , 19-H ) :  -0.1606 B( 14-P , 20-C ) :   0.2535 B( 14-P , 22-H ) :  -0.1578
B( 14-P , 24-H ) :  -0.1680 B( 14-P , 26-H ) :  -0.1306 B( 14-P , 27-C ) :   0.1438
B( 14-P , 29-Cl) :   0.2977 B( 14-P , 30-C ) :   0.1607 B( 14-P , 32-Cl) :   0.2884
B( 15-C , 16-C ) :   0.1108 B( 15-C , 23-H ) :   0.5962 B( 15-C , 24-H ) :   0.9402
B( 15-C , 26-H ) :   0.8340 B( 16-C , 21-H ) :   0.5347 B( 16-C , 22-H ) :   0.8891
B( 16-C , 25-H ) :   0.9254 B( 17-H , 19-H ) :   0.1676 B( 17-H , 20-C ) :   0.7726
B( 18-H , 19-H ) :   0.1046 B( 18-H , 20-C ) :   0.4850 B( 19-H , 20-C ) :   1.0351
B( 22-H , 25-H ) :   0.1618 B( 23-H , 26-H ) :   0.1057 B( 24-H , 26-H ) :   0.1397
B( 27-C , 28-O ) :   1.7834 B( 27-C , 29-Cl) :   0.1635 B( 27-C , 30-C ) :   0.1525
B( 30-C , 31-O ) :   1.7626 B( 30-C , 32-Cl) :   0.1100 B( 30-C , 33-C ) :   0.1215
B( 30-C , 35-H ) :  -0.1250 B( 30-C , 36-H ) :  -0.2329 B( 33-C , 34-H ) :   0.4919
B( 33-C , 35-H ) :   0.8923 B( 33-C , 36-H ) :   1.1190 B( 34-H , 35-H ) :   0.1245

Dispersion correction           -0.008860209
FINAL SINGLE POINT ENERGY     -2213.615920791390

DIPOLE MOMENT
-------------
                                X             Y             Z
Electronic contribution:      0.14929      -7.68028      12.10908
Nuclear contribution   :     -0.04564       8.50954     -11.91616
                        -----------------------------------------
Total Dipole Moment    :      0.10365       0.82926       0.19292
                        -----------------------------------------
Magnitude (a.u.)       :      0.85769
Magnitude (Debye)      :      2.18008

Rotational constants in cm-1:     0.013559     0.009254     0.008806
Rotational constants in MHz :   406.483484   277.425577   264.007304

                             ****ORCA TERMINATED NORMALLY****
TOTAL RUN TIME: 0 days 0 hours 18 minutes 25 seconds 701 msec
