                         Program Version 4.2.0 -  RELEASE  -
|  1> #
|  2> # MOR30_pr12 M06-D3/Def2-TZVPPD
|  3> #
|  4> ! m06 d3zero def2-tzvppd def2/jk grid4 nofinalgrid
|  5>
|  6> *xyz 0 1
|  7> Cr      -0.000015    0.000077   -0.030936
|  8> O       -3.048010    0.000059    0.176284
|  9> C       -1.899390    0.000055    0.076972
| 10> C        0.001618   -0.001981    1.838499
| 11> O        0.002800   -0.003409    2.993522
| 12> C        1.899510    0.000027    0.074271
| 13> O        3.048267   -0.000019    0.172029
| 14> C       -0.000196    1.904845   -0.051611
| 15> O       -0.000396    3.057825   -0.041163
| 16> C       -0.000244   -1.904616   -0.055186
| 17> O       -0.000506   -3.057616   -0.046760
| 18> C       -0.692601    0.002127   -2.246320
| 19> H       -1.244106   -0.917771   -2.406195
| 20> H       -1.243862    0.922423   -2.404834
| 21> C        0.689570    0.001986   -2.247230
| 22> H        1.240812    0.922165   -2.406446
| 23> H        1.240675   -0.918028   -2.407739
| 24> *
| 25>
| 26> %maxcore 5000
| 27>
| 28> %pal
| 29> nprocs = 24
| 30> end
| 31>
| 32>
| 33>                          ****END OF INPUT****

CARTESIAN COORDINATES (ANGSTROEM)
---------------------------------
  Cr    -0.000015    0.000077   -0.030936
  O     -3.048010    0.000059    0.176284
  C     -1.899390    0.000055    0.076972
  C      0.001618   -0.001981    1.838499
  O      0.002800   -0.003409    2.993522
  C      1.899510    0.000027    0.074271
  O      3.048267   -0.000019    0.172029
  C     -0.000196    1.904845   -0.051611
  O     -0.000396    3.057825   -0.041163
  C     -0.000244   -1.904616   -0.055186
  O     -0.000506   -3.057616   -0.046760
  C     -0.692601    0.002127   -2.246320
  H     -1.244106   -0.917771   -2.406195
  H     -1.243862    0.922423   -2.404834
  C      0.689570    0.001986   -2.247230
  H      1.240812    0.922165   -2.406446
  H      1.240675   -0.918028   -2.407739

 Total Charge           Charge          ....    0
 Multiplicity           Mult            ....    1
 Number of Electrons    NEL             ....  110
 Basis Dimension        Dim             ....  594

ORBITAL ENERGIES
----------------

  NO   OCC          E(Eh)            E(eV)
   0   2.0000    -216.011830     -5877.9807
   1   2.0000     -24.954670      -679.0511
   2   2.0000     -21.171388      -576.1027
   3   2.0000     -21.169848      -576.0609
   4   2.0000     -21.169286      -576.0456
   5   2.0000     -19.296611      -525.0875
   6   2.0000     -19.296605      -525.0873
   7   2.0000     -19.294668      -525.0346
   8   2.0000     -19.294667      -525.0346
   9   2.0000     -19.284580      -524.7601
  10   2.0000     -10.364746      -282.0391
  11   2.0000     -10.364735      -282.0388
  12   2.0000     -10.361388      -281.9477
  13   2.0000     -10.361373      -281.9473
  14   2.0000     -10.356991      -281.8280
  15   2.0000     -10.282871      -279.8111
  16   2.0000     -10.282215      -279.7933
  17   2.0000      -2.955357       -80.4194
  18   2.0000      -1.882747       -51.2321
  19   2.0000      -1.877420       -51.0872
  20   2.0000      -1.877087       -51.0781
  21   2.0000      -1.159753       -31.5585
  22   2.0000      -1.159413       -31.5492
  23   2.0000      -1.158744       -31.5310
  24   2.0000      -1.158588       -31.5268
  25   2.0000      -1.148451       -31.2509
  26   2.0000      -0.813243       -22.1295
  27   2.0000      -0.636962       -17.3326
  28   2.0000      -0.619106       -16.8467
  29   2.0000      -0.585783       -15.9400
  30   2.0000      -0.582400       -15.8479
  31   2.0000      -0.582025       -15.8377
  32   2.0000      -0.575958       -15.6726
  33   2.0000      -0.523051       -14.2329
  34   2.0000      -0.508807       -13.8453
  35   2.0000      -0.498207       -13.5569
  36   2.0000      -0.494245       -13.4491
  37   2.0000      -0.493569       -13.4307
  38   2.0000      -0.492685       -13.4066
  39   2.0000      -0.484738       -13.1904
  40   2.0000      -0.481142       -13.0925
  41   2.0000      -0.479927       -13.0595
  42   2.0000      -0.472312       -12.8523
  43   2.0000      -0.468759       -12.7556
  44   2.0000      -0.468365       -12.7449
  45   2.0000      -0.467880       -12.7317
  46   2.0000      -0.456767       -12.4293
  47   2.0000      -0.436668       -11.8823
  48   2.0000      -0.423571       -11.5260
  49   2.0000      -0.419906       -11.4262
  50   2.0000      -0.405886       -11.0447
  51   2.0000      -0.344461        -9.3733
  52   2.0000      -0.259484        -7.0609
  53   2.0000      -0.256896        -6.9905
  54   2.0000      -0.246771        -6.7150
  55   0.0000      -0.054853        -1.4926
  56   0.0000      -0.045321        -1.2332
  57   0.0000      -0.039872        -1.0850
  58   0.0000      -0.038682        -1.0526
  59   0.0000      -0.036282        -0.9873

MULLIKEN ATOMIC CHARGES
-----------------------
   0 Cr:    0.826267
   1 O :   -0.454423
   2 C :    0.284076
   3 C :    0.329846
   4 O :   -0.449243
   5 C :    0.283648
   6 O :   -0.454386
   7 C :    0.365653
   8 O :   -0.457566
   9 C :    0.365660
  10 O :   -0.457519
  11 C :   -1.352958
  12 H :    0.630967
  13 H :    0.630900
  14 C :   -1.353195
  15 H :    0.631123
  16 H :    0.631151
Sum of atomic charges:   -0.0000000

LOEWDIN ATOMIC CHARGES
----------------------
   0 Cr:   -0.367979
   1 O :    0.141683
   2 C :   -0.094527
   3 C :   -0.108647
   4 O :    0.132478
   5 C :   -0.094538
   6 O :    0.141684
   7 C :   -0.064565
   8 O :    0.137866
   9 C :   -0.064603
  10 O :    0.137873
  11 C :    0.072446
  12 H :   -0.010411
  13 H :   -0.010388
  14 C :    0.072435
  15 H :   -0.010388
  16 H :   -0.010419

  Mayer bond orders larger than 0.100000
B(  0-Cr,  2-C ) :   0.6848 B(  0-Cr,  3-C ) :   0.9522 B(  0-Cr,  5-C ) :   0.6835
B(  0-Cr,  7-C ) :   0.6623 B(  0-Cr,  9-C ) :   0.6621 B(  1-O ,  2-C ) :   1.5812
B(  3-C ,  4-O ) :   1.5872 B(  5-C ,  6-O ) :   1.5810 B(  7-C ,  8-O ) :   1.5667
B(  9-C , 10-O ) :   1.5665 B( 11-C , 12-H ) :   0.7177 B( 11-C , 13-H ) :   0.7176
B( 11-C , 14-C ) :   1.1658 B( 14-C , 15-H ) :   0.7172 B( 14-C , 16-H ) :   0.7174

Dispersion correction           -0.002861151
FINAL SINGLE POINT ENERGY     -1689.668154104381

DIPOLE MOMENT
-------------
                                X             Y             Z
Electronic contribution:      0.00525      -0.00679       7.76401
Nuclear contribution   :     -0.00600       0.00791      -8.87043
                        -----------------------------------------
Total Dipole Moment    :     -0.00075       0.00112      -1.10642
                        -----------------------------------------
Magnitude (a.u.)       :      1.10642
Magnitude (Debye)      :      2.81229

Rotational constants in cm-1:     0.023439     0.023057     0.021301
Rotational constants in MHz :   702.695821   691.231713   638.589543

                             ****ORCA TERMINATED NORMALLY****
TOTAL RUN TIME: 0 days 0 hours 2 minutes 44 seconds 1 msec
