                         Program Version 4.2.0 -  RELEASE  -
|  1> #
|  2> # MOR35_pr36 M06-D3/Def2-TZVPPD
|  3> #
|  4> ! m06 d3zero def2-tzvppd def2/jk grid4 nofinalgrid
|  5>
|  6> *xyz 0 1
|  7> Mo       0.001156    0.812745    0.000207
|  8> C        1.172497    1.772826   -1.694485
|  9> C        0.639726    0.579325   -2.273801
| 10> C       -0.771247    0.649846   -2.254302
| 11> C       -1.164711    1.879753   -1.653638
| 12> C        0.046469    2.597671   -1.356619
| 13> H        2.218029    2.030602   -1.618416
| 14> H        1.217264   -0.260486   -2.625291
| 15> H       -1.439014   -0.129218   -2.585395
| 16> H       -2.178363    2.230425   -1.528995
| 17> H        0.103229    3.616282   -1.010207
| 18> C       -0.046468    2.595414    1.359819
| 19> C       -1.170703    1.767726    1.696458
| 20> C        0.775662    0.648005    2.254259
| 21> C        1.166251    1.879509    1.655532
| 22> H       -2.216820    2.023173    1.620920
| 23> H       -1.210568   -0.267639    2.623707
| 24> C       -0.635131    0.574168    2.273601
| 25> H        2.179106    2.232469    1.530897
| 26> H       -0.105362    3.614384    1.014912
| 27> H        1.445278   -0.130208    2.583598
| 28> I        1.897907   -1.310822   -0.012606
| 29> I       -1.900461   -1.307301    0.011561
| 30> *
| 31>
| 32> %maxcore 5000
| 33>
| 34> %pal
| 35> nprocs = 24
| 36> end
| 37>
| 38>
| 39>                          ****END OF INPUT****

CARTESIAN COORDINATES (ANGSTROEM)
---------------------------------
  Mo     0.001156    0.812745    0.000207
  C      1.172497    1.772826   -1.694485
  C      0.639726    0.579325   -2.273801
  C     -0.771247    0.649846   -2.254302
  C     -1.164711    1.879753   -1.653638
  C      0.046469    2.597671   -1.356619
  H      2.218029    2.030602   -1.618416
  H      1.217264   -0.260486   -2.625291
  H     -1.439014   -0.129218   -2.585395
  H     -2.178363    2.230425   -1.528995
  H      0.103229    3.616282   -1.010207
  C     -0.046468    2.595414    1.359819
  C     -1.170703    1.767726    1.696458
  C      0.775662    0.648005    2.254259
  C      1.166251    1.879509    1.655532
  H     -2.216820    2.023173    1.620920
  H     -1.210568   -0.267639    2.623707
  C     -0.635131    0.574168    2.273601
  H      2.179106    2.232469    1.530897
  H     -0.105362    3.614384    1.014912
  H      1.445278   -0.130208    2.583598
  I      1.897907   -1.310822   -0.012606
  I     -1.900461   -1.307301    0.011561

 Total Charge           Charge          ....    0
 Multiplicity           Mult            ....    1
 Number of Electrons    NEL             ....  134
 Basis Dimension        Dim             ....  714

ORBITAL ENERGIES
----------------

  NO   OCC          E(Eh)            E(eV)
   0   2.0000     -10.290427      -280.0167
   1   2.0000     -10.290419      -280.0165
   2   2.0000     -10.284828      -279.8644
   3   2.0000     -10.284797      -279.8636
   4   2.0000     -10.282857      -279.8108
   5   2.0000     -10.282798      -279.8092
   6   2.0000     -10.280414      -279.7443
   7   2.0000     -10.280378      -279.7433
   8   2.0000     -10.279055      -279.7073
   9   2.0000     -10.279019      -279.7063
  10   2.0000      -6.800810      -185.0594
  11   2.0000      -6.800807      -185.0594
  12   2.0000      -4.841832      -131.7529
  13   2.0000      -4.841823      -131.7527
  14   2.0000      -4.832089      -131.4878
  15   2.0000      -4.832087      -131.4878
  16   2.0000      -4.831889      -131.4824
  17   2.0000      -4.831888      -131.4824
  18   2.0000      -2.596265       -70.6480
  19   2.0000      -1.905543       -51.8525
  20   2.0000      -1.905526       -51.8520
  21   2.0000      -1.903146       -51.7872
  22   2.0000      -1.903136       -51.7870
  23   2.0000      -1.902940       -51.7816
  24   2.0000      -1.902899       -51.7805
  25   2.0000      -1.894866       -51.5619
  26   2.0000      -1.894857       -51.5617
  27   2.0000      -1.894820       -51.5607
  28   2.0000      -1.894815       -51.5606
  29   2.0000      -1.625315       -44.2271
  30   2.0000      -1.605702       -43.6934
  31   2.0000      -1.590830       -43.2887
  32   2.0000      -0.937707       -25.5163
  33   2.0000      -0.922852       -25.1121
  34   2.0000      -0.765303       -20.8250
  35   2.0000      -0.758912       -20.6511
  36   2.0000      -0.756769       -20.5927
  37   2.0000      -0.755195       -20.5499
  38   2.0000      -0.649463       -17.6728
  39   2.0000      -0.641207       -17.4481
  40   2.0000      -0.602491       -16.3946
  41   2.0000      -0.585008       -15.9189
  42   2.0000      -0.582908       -15.8617
  43   2.0000      -0.581527       -15.8242
  44   2.0000      -0.578121       -15.7315
  45   2.0000      -0.568279       -15.4637
  46   2.0000      -0.464239       -12.6326
  47   2.0000      -0.452685       -12.3182
  48   2.0000      -0.450428       -12.2568
  49   2.0000      -0.449881       -12.2419
  50   2.0000      -0.446209       -12.1420
  51   2.0000      -0.429698       -11.6927
  52   2.0000      -0.424378       -11.5479
  53   2.0000      -0.422154       -11.4874
  54   2.0000      -0.419235       -11.4080
  55   2.0000      -0.413073       -11.2403
  56   2.0000      -0.335669        -9.1340
  57   2.0000      -0.328009        -8.9256
  58   2.0000      -0.322036        -8.7630
  59   2.0000      -0.305582        -8.3153
  60   2.0000      -0.290503        -7.9050
  61   2.0000      -0.282204        -7.6792
  62   2.0000      -0.268366        -7.3026
  63   2.0000      -0.228597        -6.2204
  64   2.0000      -0.228129        -6.2077
  65   2.0000      -0.215936        -5.8759
  66   2.0000      -0.203771        -5.5449
  67   0.0000      -0.070726        -1.9246
  68   0.0000      -0.060838        -1.6555
  69   0.0000      -0.046288        -1.2596
  70   0.0000      -0.038943        -1.0597
  71   0.0000      -0.026923        -0.7326

MULLIKEN ATOMIC CHARGES
-----------------------
   0 Mo:    0.097215
   1 C :   -0.517398
   2 C :   -0.892043
   3 C :   -0.935449
   4 C :   -0.556783
   5 C :   -0.931466
   6 H :    0.638699
   7 H :    0.910023
   8 H :    0.901059
   9 H :    0.679877
  10 H :    0.980174
  11 C :   -0.932374
  12 C :   -0.514085
  13 C :   -0.936180
  14 C :   -0.557319
  15 H :    0.638165
  16 H :    0.910419
  17 C :   -0.893138
  18 H :    0.679412
  19 H :    0.980478
  20 H :    0.901303
  21 I :   -0.325757
  22 I :   -0.324830
Sum of atomic charges:    0.0000000

LOEWDIN ATOMIC CHARGES
----------------------
   0 Mo:    0.690189
   1 C :   -0.091668
   2 C :   -0.154888
   3 C :   -0.148277
   4 C :   -0.077252
   5 C :   -0.085022
   6 H :    0.008519
   7 H :   -0.044678
   8 H :   -0.046004
   9 H :    0.011720
  10 H :    0.002429
  11 C :   -0.084990
  12 C :   -0.092287
  13 C :   -0.148248
  14 C :   -0.076762
  15 H :    0.008380
  16 H :   -0.044952
  17 C :   -0.155502
  18 H :    0.011780
  19 H :    0.002405
  20 H :   -0.046148
  21 I :    0.280310
  22 I :    0.280944

  Mayer bond orders larger than 0.100000
B(  0-Mo,  2-C ) :   0.5087 B(  0-Mo,  3-C ) :   0.4416 B(  0-Mo,  4-C ) :   0.1387
B(  0-Mo,  5-C ) :   0.9275 B(  0-Mo, 11-C ) :   0.9284 B(  0-Mo, 13-C ) :   0.4407
B(  0-Mo, 14-C ) :   0.1383 B(  0-Mo, 17-C ) :   0.5092 B(  0-Mo, 21-I ) :   0.5913
B(  0-Mo, 22-I ) :   0.5923 B(  1-C ,  2-C ) :   0.7984 B(  1-C ,  3-C ) :  -0.1802
B(  1-C ,  5-C ) :   1.1768 B(  1-C ,  6-H ) :   0.7454 B(  1-C , 11-C ) :  -0.2077
B(  1-C , 14-C ) :   0.4346 B(  1-C , 22-I ) :  -0.1395 B(  2-C ,  3-C ) :   1.1338
B(  2-C ,  4-C ) :  -0.1392 B(  2-C ,  5-C ) :  -0.1140 B(  2-C ,  7-H ) :   0.3360
B(  2-C , 14-C ) :  -0.1616 B(  2-C , 21-I ) :   0.1496 B(  2-C , 22-I ) :   0.2478
B(  3-C ,  4-C ) :   0.8026 B(  3-C ,  8-H ) :   0.3503 B(  3-C , 21-I ) :   0.2410
B(  3-C , 22-I ) :   0.1442 B(  4-C ,  5-C ) :   1.0869 B(  4-C ,  9-H ) :   0.6747
B(  4-C , 11-C ) :  -0.2428 B(  4-C , 12-C ) :   0.4331 B(  4-C , 17-C ) :  -0.1611
B(  4-C , 21-I ) :  -0.1174 B(  4-C , 22-I ) :   0.1214 B(  5-C , 10-H ) :   0.1256
B(  5-C , 12-C ) :  -0.2059 B(  5-C , 14-C ) :  -0.2450 B(  7-H , 21-I ) :  -0.2458
B(  8-H , 22-I ) :  -0.2385 B( 11-C , 12-C ) :   1.1775 B( 11-C , 14-C ) :   1.0842
B( 11-C , 17-C ) :  -0.1155 B( 11-C , 19-H ) :   0.1252 B( 12-C , 13-C ) :  -0.1807
B( 12-C , 15-H ) :   0.7467 B( 12-C , 17-C ) :   0.7983 B( 12-C , 21-I ) :  -0.1382
B( 13-C , 14-C ) :   0.8016 B( 13-C , 17-C ) :   1.1355 B( 13-C , 20-H ) :   0.3508
B( 13-C , 21-I ) :   0.1413 B( 13-C , 22-I ) :   0.2397 B( 14-C , 17-C ) :  -0.1389
B( 14-C , 18-H ) :   0.6761 B( 14-C , 21-I ) :   0.1245 B( 14-C , 22-I ) :  -0.1174
B( 16-H , 17-C ) :   0.3345 B( 16-H , 22-I ) :  -0.2456 B( 17-C , 21-I ) :   0.2480
B( 17-C , 22-I ) :   0.1529 B( 20-H , 21-I ) :  -0.2380

Dispersion correction           -0.003680560
FINAL SINGLE POINT ENERGY     -1050.771310234963

DIPOLE MOMENT
-------------
                                X             Y             Z
Electronic contribution:     -0.09818    -124.37340      -0.05626
Nuclear contribution   :      0.10150     127.02090       0.05751
                        -----------------------------------------
Total Dipole Moment    :      0.00332       2.64750       0.00124
                        -----------------------------------------
Magnitude (a.u.)       :      2.64750
Magnitude (Debye)      :      6.72942

Rotational constants in cm-1:     0.012573     0.011263     0.008836
Rotational constants in MHz :   376.926737   337.652277   264.898337

                             ****ORCA TERMINATED NORMALLY****
TOTAL RUN TIME: 0 days 0 hours 10 minutes 29 seconds 148 msec
