                         Program Version 4.2.0 -  RELEASE  -
|  1> #
|  2> # MOR37_pr38 M06-D3/Def2-TZVPPD
|  3> #
|  4> ! m06 d3zero def2-tzvppd def2/jk grid4 nofinalgrid
|  5>
|  6> *xyz 0 1
|  7> Mo       0.000368   -0.000951   -0.664236
|  8> C        1.186218    1.095679   -1.824431
|  9> C       -1.543342    0.475450   -1.823831
| 10> C        0.358600   -1.578355   -1.821075
| 11> O        0.584740   -2.492846   -2.512436
| 12> O        1.864319    1.747384   -2.517871
| 13> O       -2.447606    0.735637   -2.516687
| 14> P        1.980785   -0.729448    0.688588
| 15> P       -1.623545   -1.348294    0.688464
| 16> P       -0.357708    2.080403    0.685812
| 17> C       -1.633250    3.223236    0.009653
| 18> H       -1.705660    4.145387    0.596929
| 19> H       -2.603028    2.718106    0.000627
| 20> H       -1.373511    3.465952   -1.024212
| 21> C       -0.858884    2.043709    2.465539
| 22> H       -1.825180    1.541749    2.565977
| 23> H       -0.943418    3.056285    2.875390
| 24> H       -0.120247    1.484663    3.045786
| 25> C        1.092608    3.215640    0.782943
| 26> H        0.848407    4.138527    1.320517
| 27> H        1.418994    3.459201   -0.231490
| 28> H        1.920240    2.713456    1.291867
| 29> C       -1.984130   -3.020964    0.008508
| 30> H       -2.747676   -3.543086    0.595776
| 31> H       -1.064326   -3.612180   -0.003877
| 32> H       -2.325682   -2.913010   -1.024422
| 33> C       -1.336917   -1.769970    2.466070
| 34> H       -2.171293   -2.349509    2.876428
| 35> H       -1.219304   -0.852646    3.048800
| 36> H       -0.419591   -2.357379    2.562237
| 37> C       -3.329045   -0.653966    0.792955
| 38> H       -4.006858   -1.325859    1.330979
| 39> H       -3.705797   -0.489375   -0.219919
| 40> H       -3.303097    0.312486    1.304224
| 41> C        3.608641   -0.198569    0.011444
| 42> H        4.443241   -0.596886    0.599054
| 43> H        3.657034    0.893802    0.001026
| 44> H        3.688452   -0.546249   -1.021993
| 45> C        2.199807   -0.272940    2.467201
| 46> H        3.119209   -0.704894    2.877753
| 47> H        1.346620   -0.631939    3.048604
| 48> H        2.248134    0.815142    2.564989
| 49> C        2.238042   -2.552971    0.789569
| 50> H        3.157648   -2.802349    1.330381
| 51> H        2.288935   -2.958854   -0.224143
| 52> H        1.387609   -3.017788    1.296348
| 53> *
| 54>
| 55> %maxcore 5000
| 56>
| 57> %pal
| 58> nprocs = 24
| 59> end
| 60>
| 61>
| 62>                          ****END OF INPUT****

CARTESIAN COORDINATES (ANGSTROEM)
---------------------------------
  Mo     0.000368   -0.000951   -0.664236
  C      1.186218    1.095679   -1.824431
  C     -1.543342    0.475450   -1.823831
  C      0.358600   -1.578355   -1.821075
  O      0.584740   -2.492846   -2.512436
  O      1.864319    1.747384   -2.517871
  O     -2.447606    0.735637   -2.516687
  P      1.980785   -0.729448    0.688588
  P     -1.623545   -1.348294    0.688464
  P     -0.357708    2.080403    0.685812
  C     -1.633250    3.223236    0.009653
  H     -1.705660    4.145387    0.596929
  H     -2.603028    2.718106    0.000627
  H     -1.373511    3.465952   -1.024212
  C     -0.858884    2.043709    2.465539
  H     -1.825180    1.541749    2.565977
  H     -0.943418    3.056285    2.875390
  H     -0.120247    1.484663    3.045786
  C      1.092608    3.215640    0.782943
  H      0.848407    4.138527    1.320517
  H      1.418994    3.459201   -0.231490
  H      1.920240    2.713456    1.291867
  C     -1.984130   -3.020964    0.008508
  H     -2.747676   -3.543086    0.595776
  H     -1.064326   -3.612180   -0.003877
  H     -2.325682   -2.913010   -1.024422
  C     -1.336917   -1.769970    2.466070
  H     -2.171293   -2.349509    2.876428
  H     -1.219304   -0.852646    3.048800
  H     -0.419591   -2.357379    2.562237
  C     -3.329045   -0.653966    0.792955
  H     -4.006858   -1.325859    1.330979
  H     -3.705797   -0.489375   -0.219919
  H     -3.303097    0.312486    1.304224
  C      3.608641   -0.198569    0.011444
  H      4.443241   -0.596886    0.599054
  H      3.657034    0.893802    0.001026
  H      3.688452   -0.546249   -1.021993
  C      2.199807   -0.272940    2.467201
  H      3.119209   -0.704894    2.877753
  H      1.346620   -0.631939    3.048604
  H      2.248134    0.815142    2.564989
  C      2.238042   -2.552971    0.789569
  H      3.157648   -2.802349    1.330381
  H      2.288935   -2.958854   -0.224143
  H      1.387609   -3.017788    1.296348

 Total Charge           Charge          ....    0
 Multiplicity           Mult            ....    1
 Number of Electrons    NEL             ....  182
 Basis Dimension        Dim             .... 1223

ORBITAL ENERGIES
----------------

  NO   OCC          E(Eh)            E(eV)
   0   2.0000     -77.243403     -2101.8998
   1   2.0000     -77.243381     -2101.8993
   2   2.0000     -77.243232     -2101.8952
   3   2.0000     -19.233547      -523.3714
   4   2.0000     -19.233524      -523.3708
   5   2.0000     -19.233514      -523.3705
   6   2.0000     -10.304937      -280.4116
   7   2.0000     -10.304896      -280.4105
   8   2.0000     -10.304840      -280.4090
   9   2.0000     -10.246027      -278.8086
  10   2.0000     -10.245883      -278.8046
  11   2.0000     -10.245717      -278.8001
  12   2.0000     -10.240262      -278.6517
  13   2.0000     -10.240163      -278.6490
  14   2.0000     -10.240053      -278.6460
  15   2.0000     -10.237165      -278.5674
  16   2.0000     -10.237138      -278.5667
  17   2.0000     -10.237048      -278.5642
  18   2.0000      -6.668680      -181.4640
  19   2.0000      -6.668676      -181.4639
  20   2.0000      -6.668538      -181.4601
  21   2.0000      -4.789752      -130.3358
  22   2.0000      -4.789745      -130.3356
  23   2.0000      -4.789619      -130.3321
  24   2.0000      -4.789510      -130.3292
  25   2.0000      -4.789506      -130.3291
  26   2.0000      -4.789370      -130.3254
  27   2.0000      -4.785854      -130.2297
  28   2.0000      -4.785822      -130.2289
  29   2.0000      -4.785674      -130.2248
  30   2.0000      -2.497732       -67.9667
  31   2.0000      -1.513195       -41.1761
  32   2.0000      -1.513190       -41.1760
  33   2.0000      -1.512806       -41.1655
  34   2.0000      -1.094312       -29.7777
  35   2.0000      -1.093802       -29.7639
  36   2.0000      -1.093775       -29.7631
  37   2.0000      -0.791142       -21.5281
  38   2.0000      -0.786260       -21.3952
  39   2.0000      -0.786198       -21.3935
  40   2.0000      -0.717981       -19.5373
  41   2.0000      -0.715273       -19.4636
  42   2.0000      -0.715119       -19.4594
  43   2.0000      -0.710707       -19.3393
  44   2.0000      -0.710639       -19.3375
  45   2.0000      -0.709678       -19.3113
  46   2.0000      -0.570895       -15.5348
  47   2.0000      -0.558531       -15.1984
  48   2.0000      -0.558460       -15.1965
  49   2.0000      -0.539447       -14.6791
  50   2.0000      -0.531366       -14.4592
  51   2.0000      -0.531351       -14.4588
  52   2.0000      -0.476129       -12.9561
  53   2.0000      -0.467235       -12.7141
  54   2.0000      -0.467129       -12.7112
  55   2.0000      -0.456124       -12.4118
  56   2.0000      -0.455998       -12.4083
  57   2.0000      -0.454302       -12.3622
  58   2.0000      -0.449591       -12.2340
  59   2.0000      -0.446478       -12.1493
  60   2.0000      -0.446404       -12.1473
  61   2.0000      -0.433718       -11.8021
  62   2.0000      -0.433676       -11.8009
  63   2.0000      -0.433310       -11.7910
  64   2.0000      -0.430038       -11.7019
  65   2.0000      -0.427971       -11.6457
  66   2.0000      -0.427849       -11.6424
  67   2.0000      -0.423902       -11.5350
  68   2.0000      -0.418778       -11.3955
  69   2.0000      -0.418682       -11.3929
  70   2.0000      -0.415065       -11.2945
  71   2.0000      -0.413656       -11.2562
  72   2.0000      -0.413622       -11.2552
  73   2.0000      -0.410372       -11.1668
  74   2.0000      -0.408043       -11.1034
  75   2.0000      -0.407160       -11.0794
  76   2.0000      -0.407130       -11.0786
  77   2.0000      -0.400545       -10.8994
  78   2.0000      -0.400532       -10.8990
  79   2.0000      -0.358536        -9.7563
  80   2.0000      -0.356950        -9.7131
  81   2.0000      -0.356908        -9.7120
  82   2.0000      -0.350400        -9.5349
  83   2.0000      -0.350329        -9.5329
  84   2.0000      -0.349172        -9.5015
  85   2.0000      -0.289510        -7.8780
  86   2.0000      -0.279814        -7.6141
  87   2.0000      -0.279768        -7.6129
  88   2.0000      -0.194323        -5.2878
  89   2.0000      -0.194278        -5.2866
  90   2.0000      -0.192821        -5.2469
  91   0.0000      -0.040137        -1.0922
  92   0.0000      -0.025379        -0.6906
  93   0.0000      -0.025360        -0.6901
  94   0.0000      -0.018636        -0.5071
  95   0.0000      -0.011500        -0.3129

MULLIKEN ATOMIC CHARGES
-----------------------
   0 Mo:    1.328939
   1 C :   -0.284669
   2 C :   -0.285942
   3 C :   -0.289312
   4 O :   -0.491251
   5 O :   -0.489857
   6 O :   -0.490412
   7 P :    1.937472
   8 P :    1.974465
   9 P :    1.949551
  10 C :   -2.396018
  11 H :    0.714494
  12 H :    0.549783
  13 H :    0.548111
  14 C :   -2.090778
  15 H :    0.541410
  16 H :    0.668079
  17 H :    0.306579
  18 C :   -2.162515
  19 H :    0.628957
  20 H :    0.558182
  21 H :    0.522282
  22 C :   -2.416864
  23 H :    0.709439
  24 H :    0.560137
  25 H :    0.551780
  26 C :   -2.078129
  27 H :    0.676310
  28 H :    0.307685
  29 H :    0.522406
  30 C :   -2.214728
  31 H :    0.619425
  32 H :    0.546689
  33 H :    0.554705
  34 C :   -2.382905
  35 H :    0.716232
  36 H :    0.557424
  37 H :    0.534788
  38 C :   -2.028830
  39 H :    0.677409
  40 H :    0.309862
  41 H :    0.501873
  42 C :   -2.195161
  43 H :    0.630424
  44 H :    0.557696
  45 H :    0.534782
Sum of atomic charges:   -0.0000000

LOEWDIN ATOMIC CHARGES
----------------------
   0 Mo:    0.125609
   1 C :   -0.300889
   2 C :   -0.300908
   3 C :   -0.300859
   4 O :    0.018661
   5 O :    0.018720
   6 O :    0.018617
   7 P :    0.836074
   8 P :    0.835993
   9 P :    0.836015
  10 C :   -0.030419
  11 H :   -0.047105
  12 H :   -0.054422
  13 H :   -0.044647
  14 C :   -0.033218
  15 H :   -0.071895
  16 H :   -0.046722
  17 H :   -0.071162
  18 C :   -0.027259
  19 H :   -0.046255
  20 H :   -0.053612
  21 H :   -0.068900
  22 C :   -0.030371
  23 H :   -0.047164
  24 H :   -0.054121
  25 H :   -0.044726
  26 C :   -0.033568
  27 H :   -0.046702
  28 H :   -0.070797
  29 H :   -0.071851
  30 C :   -0.027169
  31 H :   -0.046273
  32 H :   -0.053641
  33 H :   -0.069182
  34 C :   -0.030493
  35 H :   -0.047092
  36 H :   -0.054264
  37 H :   -0.044786
  38 C :   -0.033798
  39 H :   -0.046684
  40 H :   -0.070982
  41 H :   -0.071790
  42 C :   -0.027216
  43 H :   -0.046142
  44 H :   -0.053632
  45 H :   -0.068970

  Mayer bond orders larger than 0.100000
B(  0-Mo,  7-P ) :   0.5186 B(  0-Mo,  8-P ) :   0.5040 B(  0-Mo,  9-P ) :   0.4935
B(  0-Mo, 10-C ) :   0.1407 B(  0-Mo, 22-C ) :   0.1345 B(  0-Mo, 34-C ) :   0.1390
B(  1-C ,  5-O ) :   1.5100 B(  2-C ,  6-O ) :   1.5097 B(  2-C ,  9-P ) :   0.1113
B(  3-C ,  4-O ) :   1.5031 B(  3-C ,  8-P ) :   0.1086 B(  7-P ,  8-P ) :   0.2247
B(  7-P ,  9-P ) :   0.2306 B(  7-P , 36-H ) :  -0.1523 B(  7-P , 37-H ) :  -0.1884
B(  7-P , 38-C ) :   0.1444 B(  7-P , 40-H ) :  -0.1187 B(  7-P , 44-H ) :  -0.1081
B(  7-P , 45-H ) :  -0.1564 B(  8-P ,  9-P ) :   0.2175 B(  8-P , 24-H ) :  -0.1520
B(  8-P , 25-H ) :  -0.1820 B(  8-P , 26-C ) :   0.1052 B(  8-P , 28-H ) :  -0.1341
B(  8-P , 32-H ) :  -0.1068 B(  8-P , 33-H ) :  -0.1478 B(  9-P , 12-H ) :  -0.1595
B(  9-P , 13-H ) :  -0.1817 B(  9-P , 14-C ) :   0.1703 B(  9-P , 17-H ) :  -0.1139
B(  9-P , 21-H ) :  -0.1448 B( 10-C , 11-H ) :   0.5458 B( 10-C , 12-H ) :   0.8858
B( 10-C , 13-H ) :   0.8825 B( 10-C , 14-C ) :   0.1209 B( 10-C , 18-C ) :   0.1314
B( 12-H , 13-H ) :   0.1810 B( 14-C , 15-H ) :   0.7587 B( 14-C , 16-H ) :   0.6598
B( 14-C , 17-H ) :   1.1295 B( 14-C , 18-C ) :   0.2012 B( 15-H , 17-H ) :   0.2963
B( 18-C , 19-H ) :   0.7091 B( 18-C , 20-H ) :   0.8456 B( 18-C , 21-H ) :   0.9018
B( 20-H , 21-H ) :   0.1624 B( 22-C , 23-H ) :   0.5572 B( 22-C , 24-H ) :   0.8603
B( 22-C , 25-H ) :   0.8825 B( 22-C , 26-C ) :   0.1309 B( 22-C , 30-C ) :   0.1440
B( 24-H , 25-H ) :   0.1895 B( 26-C , 27-H ) :   0.6441 B( 26-C , 28-H ) :   1.1455
B( 26-C , 29-H ) :   0.7736 B( 26-C , 30-C ) :   0.2125 B( 28-H , 29-H ) :   0.2955
B( 30-C , 31-H ) :   0.7260 B( 30-C , 32-H ) :   0.8734 B( 30-C , 33-H ) :   0.8703
B( 32-H , 33-H ) :   0.1668 B( 34-C , 35-H ) :   0.5444 B( 34-C , 36-H ) :   0.8539
B( 34-C , 37-H ) :   0.9180 B( 34-C , 38-C ) :   0.1302 B( 34-C , 42-C ) :   0.1406
B( 36-H , 37-H ) :   0.1899 B( 38-C , 39-H ) :   0.6450 B( 38-C , 40-H ) :   1.1279
B( 38-C , 41-H ) :   0.7807 B( 38-C , 42-C ) :   0.2071 B( 40-H , 41-H ) :   0.3006
B( 42-C , 43-H ) :   0.7072 B( 42-C , 44-H ) :   0.8534 B( 42-C , 45-H ) :   0.9072
B( 44-H , 45-H ) :   0.1531

Dispersion correction           -0.012002678
FINAL SINGLE POINT ENERGY     -1791.474428592375

DIPOLE MOMENT
-------------
                                X             Y             Z
Electronic contribution:      0.02881      -0.09321     -63.25611
Nuclear contribution   :     -0.03125       0.09337      66.31953
                        -----------------------------------------
Total Dipole Moment    :     -0.00244       0.00016       3.06342
                        -----------------------------------------
Magnitude (a.u.)       :      3.06342
Magnitude (Debye)      :      7.78659

Rotational constants in cm-1:     0.008677     0.008672     0.007610
Rotational constants in MHz :   260.126059   259.983430   228.154635

                             ****ORCA TERMINATED NORMALLY****
TOTAL RUN TIME: 0 days 0 hours 24 minutes 29 seconds 339 msec
