                         Program Version 4.2.0 -  RELEASE  -
|  1> #
|  2> # MOR36_pr37 M06-D3/Def2-TZVPPD
|  3> #
|  4> ! m06 d3zero def2-tzvppd def2/jk grid4 nofinalgrid
|  5>
|  6> *xyz 0 1
|  7> Mo       0.000106   -0.000070   -0.471377
|  8> C        0.514398   -1.514915   -1.646050
|  9> C        1.055079    1.202350   -1.646249
| 10> C       -1.568474    0.311983   -1.646660
| 11> O       -2.484520    0.493946   -2.346732
| 12> O        0.814970   -2.399453   -2.345765
| 13> O        1.670957    1.904692   -2.346079
| 14> N       -1.133555   -1.291008    0.811792
| 15> N       -0.551576    1.627166    0.811584
| 16> N        1.684684   -0.335905    0.812231
| 17> C        2.623715   -0.523292    1.470917
| 18> C       -0.858944    2.534303    1.469905
| 19> C       -1.765652   -2.010491    1.470244
| 20> C       -2.579903   -2.936733    2.238371
| 21> H       -3.631237   -2.631169    2.207389
| 22> H       -2.252645   -2.962558    3.282907
| 23> H       -2.496617   -3.945451    1.819577
| 24> C       -1.254401    3.702555    2.237857
| 25> H       -0.464690    4.460832    2.206160
| 26> H       -1.439592    3.432273    3.282594
| 27> H       -2.170183    4.133961    1.819442
| 28> C        3.832875   -0.764956    2.239344
| 29> H        4.094105   -1.828181    2.208653
| 30> H        3.691346   -0.468421    3.283785
| 31> H        4.664793   -0.188419    1.820591
| 32> *
| 33>
| 34> %maxcore 5000
| 35>
| 36> %pal
| 37> nprocs = 24
| 38> end
| 39>
| 40>
| 41>                          ****END OF INPUT****

CARTESIAN COORDINATES (ANGSTROEM)
---------------------------------
  Mo     0.000106   -0.000070   -0.471377
  C      0.514398   -1.514915   -1.646050
  C      1.055079    1.202350   -1.646249
  C     -1.568474    0.311983   -1.646660
  O     -2.484520    0.493946   -2.346732
  O      0.814970   -2.399453   -2.345765
  O      1.670957    1.904692   -2.346079
  N     -1.133555   -1.291008    0.811792
  N     -0.551576    1.627166    0.811584
  N      1.684684   -0.335905    0.812231
  C      2.623715   -0.523292    1.470917
  C     -0.858944    2.534303    1.469905
  C     -1.765652   -2.010491    1.470244
  C     -2.579903   -2.936733    2.238371
  H     -3.631237   -2.631169    2.207389
  H     -2.252645   -2.962558    3.282907
  H     -2.496617   -3.945451    1.819577
  C     -1.254401    3.702555    2.237857
  H     -0.464690    4.460832    2.206160
  H     -1.439592    3.432273    3.282594
  H     -2.170183    4.133961    1.819442
  C      3.832875   -0.764956    2.239344
  H      4.094105   -1.828181    2.208653
  H      3.691346   -0.468421    3.283785
  H      4.664793   -0.188419    1.820591

 Total Charge           Charge          ....    0
 Multiplicity           Mult            ....    1
 Number of Electrons    NEL             ....  122
 Basis Dimension        Dim             ....  773

ORBITAL ENERGIES
----------------

  NO   OCC          E(Eh)            E(eV)
   0   2.0000     -19.211417      -522.7692
   1   2.0000     -19.211392      -522.7686
   2   2.0000     -19.211386      -522.7684
   3   2.0000     -14.414255      -392.2318
   4   2.0000     -14.414242      -392.2315
   5   2.0000     -14.414218      -392.2308
   6   2.0000     -10.296165      -280.1729
   7   2.0000     -10.296158      -280.1727
   8   2.0000     -10.296141      -280.1722
   9   2.0000     -10.295517      -280.1553
  10   2.0000     -10.295508      -280.1550
  11   2.0000     -10.295491      -280.1546
  12   2.0000     -10.279637      -279.7231
  13   2.0000     -10.279626      -279.7228
  14   2.0000     -10.279589      -279.7218
  15   2.0000      -2.488887       -67.7261
  16   2.0000      -1.505817       -40.9754
  17   2.0000      -1.502235       -40.8779
  18   2.0000      -1.502226       -40.8777
  19   2.0000      -1.072311       -29.1791
  20   2.0000      -1.071742       -29.1636
  21   2.0000      -1.071735       -29.1634
  22   2.0000      -0.937125       -25.5005
  23   2.0000      -0.934747       -25.4357
  24   2.0000      -0.934718       -25.4350
  25   2.0000      -0.798555       -21.7298
  26   2.0000      -0.798134       -21.7183
  27   2.0000      -0.798126       -21.7181
  28   2.0000      -0.549810       -14.9611
  29   2.0000      -0.543374       -14.7860
  30   2.0000      -0.543361       -14.7856
  31   2.0000      -0.522292       -14.2123
  32   2.0000      -0.509639       -13.8680
  33   2.0000      -0.509633       -13.8678
  34   2.0000      -0.486404       -13.2357
  35   2.0000      -0.485839       -13.2204
  36   2.0000      -0.485836       -13.2203
  37   2.0000      -0.485072       -13.1995
  38   2.0000      -0.485058       -13.1991
  39   2.0000      -0.484567       -13.1857
  40   2.0000      -0.467359       -12.7175
  41   2.0000      -0.454907       -12.3786
  42   2.0000      -0.454884       -12.3780
  43   2.0000      -0.412407       -11.2222
  44   2.0000      -0.409944       -11.1552
  45   2.0000      -0.409936       -11.1549
  46   2.0000      -0.399591       -10.8734
  47   2.0000      -0.399582       -10.8732
  48   2.0000      -0.394153       -10.7254
  49   2.0000      -0.391414       -10.6509
  50   2.0000      -0.381027       -10.3683
  51   2.0000      -0.381022       -10.3681
  52   2.0000      -0.369938       -10.0665
  53   2.0000      -0.369926       -10.0662
  54   2.0000      -0.364036        -9.9059
  55   2.0000      -0.363345        -9.8871
  56   2.0000      -0.355418        -9.6714
  57   2.0000      -0.355406        -9.6711
  58   2.0000      -0.168535        -4.5861
  59   2.0000      -0.165333        -4.4990
  60   2.0000      -0.165326        -4.4987
  61   0.0000      -0.051369        -1.3978
  62   0.0000      -0.038314        -1.0426
  63   0.0000      -0.038281        -1.0417
  64   0.0000      -0.009376        -0.2551
  65   0.0000      -0.006627        -0.1803

MULLIKEN ATOMIC CHARGES
-----------------------
   0 Mo:    0.083916
   1 C :    0.053300
   2 C :    0.054195
   3 C :    0.054166
   4 O :   -0.485139
   5 O :   -0.486510
   6 O :   -0.485988
   7 N :   -0.690727
   8 N :   -0.691037
   9 N :   -0.694329
  10 C :    1.191122
  11 C :    1.196697
  12 C :    1.192031
  13 C :   -1.392740
  14 H :    0.427832
  15 H :    0.433890
  16 H :    0.434535
  17 C :   -1.399317
  18 H :    0.429620
  19 H :    0.434619
  20 H :    0.432880
  21 C :   -1.385161
  22 H :    0.427239
  23 H :    0.432047
  24 H :    0.432860
Sum of atomic charges:   -0.0000000

LOEWDIN ATOMIC CHARGES
----------------------
   0 Mo:    0.470538
   1 C :   -0.252235
   2 C :   -0.252216
   3 C :   -0.252145
   4 O :    0.009157
   5 O :    0.009083
   6 O :    0.009102
   7 N :    0.046578
   8 N :    0.046592
   9 N :    0.046600
  10 C :   -0.114507
  11 C :   -0.114551
  12 C :   -0.114509
  13 C :    0.149561
  14 H :    0.002248
  15 H :   -0.001147
  16 H :    0.003513
  17 C :    0.149555
  18 H :    0.002228
  19 H :   -0.001144
  20 H :    0.003502
  21 C :    0.149621
  22 H :    0.002258
  23 H :   -0.001171
  24 H :    0.003487

  Mayer bond orders larger than 0.100000
B(  0-Mo,  1-C ) :   0.8816 B(  0-Mo,  2-C ) :   0.8806 B(  0-Mo,  3-C ) :   0.8770
B(  0-Mo,  7-N ) :   0.9592 B(  0-Mo,  8-N ) :   0.9582 B(  0-Mo,  9-N ) :   0.9637
B(  1-C ,  5-O ) :   1.5164 B(  2-C ,  6-O ) :   1.5152 B(  3-C ,  4-O ) :   1.5137
B(  7-N , 12-C ) :   2.0413 B(  8-N , 11-C ) :   2.0504 B(  9-N , 10-C ) :   2.0341
B( 10-C , 22-H ) :  -0.1219 B( 10-C , 23-H ) :  -0.1167 B( 10-C , 24-H ) :  -0.1257
B( 11-C , 17-C ) :  -0.1177 B( 11-C , 18-H ) :  -0.1227 B( 11-C , 19-H ) :  -0.1174
B( 11-C , 20-H ) :  -0.1294 B( 12-C , 13-C ) :  -0.1103 B( 12-C , 14-H ) :  -0.1237
B( 12-C , 15-H ) :  -0.1178 B( 12-C , 16-H ) :  -0.1271 B( 13-C , 14-H ) :   0.9331
B( 13-C , 15-H ) :   0.9102 B( 13-C , 16-H ) :   0.9326 B( 17-C , 18-H ) :   0.9302
B( 17-C , 19-H ) :   0.9088 B( 17-C , 20-H ) :   0.9376 B( 21-C , 22-H ) :   0.9330
B( 21-C , 23-H ) :   0.9105 B( 21-C , 24-H ) :   0.9334

Dispersion correction           -0.003663832
FINAL SINGLE POINT ENERGY      -806.431394175233

DIPOLE MOMENT
-------------
                                X             Y             Z
Electronic contribution:      0.00860      -0.00601     -40.52609
Nuclear contribution   :     -0.01011       0.00649      45.69854
                        -----------------------------------------
Total Dipole Moment    :     -0.00151       0.00048       5.17246
                        -----------------------------------------
Magnitude (a.u.)       :      5.17246
Magnitude (Debye)      :     13.14734

Rotational constants in cm-1:     0.011429     0.011429     0.011227
Rotational constants in MHz :   342.640201   342.631727   336.586559

                             ****ORCA TERMINATED NORMALLY****
TOTAL RUN TIME: 0 days 0 hours 3 minutes 56 seconds 724 msec
