                         Program Version 4.2.0 -  RELEASE  -
|  1> #
|  2> # MOR34_pr35 M06-D3/Def2-TZVPPD
|  3> #
|  4> ! m06 d3zero def2-tzvppd def2/jk grid4 nofinalgrid
|  5>
|  6> *xyz 0 1
|  7> Ru       0.569145    0.005836    0.165179
|  8> Se      -1.577691    0.219302   -1.256403
|  9> P        2.150844   -0.339975    1.751510
| 10> P        1.960774    0.268717   -1.689611
| 11> P        0.209152    2.312844    0.427199
| 12> P        0.201777   -2.273734   -0.170115
| 13> C       -3.165297    0.017396   -0.190307
| 14> C       -4.394132    0.053132   -0.874133
| 15> C       -5.595730   -0.078160   -0.183035
| 16> C       -5.602894   -0.248979    1.204636
| 17> C       -4.386994   -0.285335    1.887322
| 18> C       -3.179536   -0.153593    1.200055
| 19> C        2.835775    1.024261    2.797241
| 20> C        3.776990   -1.134294    1.350685
| 21> C        1.582544   -1.410719    3.147602
| 22> C        1.189258    0.640725   -3.324662
| 23> C        3.233820    1.610023   -1.608962
| 24> C        3.088037   -1.102636   -2.218553
| 25> C       -1.285561    2.723129    1.411363
| 26> C        1.411100    3.483245    1.220886
| 27> C       -0.106458    3.317190   -1.091179
| 28> C       -1.203048   -2.960414    0.792609
| 29> C        1.495583   -3.557062    0.180127
| 30> C       -0.249251   -2.863510   -1.860160
| 31> H       -0.380046   -0.139952    1.501494
| 32> H       -4.399385    0.184833   -1.953205
| 33> H       -6.533440   -0.047821   -0.732848
| 34> H       -6.541373   -0.352173    1.741881
| 35> H       -4.372710   -0.417664    2.966984
| 36> H       -2.231572   -0.183831    1.730627
| 37> H        2.021868    1.525326    3.326216
| 38> H        3.360848    1.757391    2.181578
| 39> H        3.533951    0.611895    3.534364
| 40> H        4.357450   -0.458164    0.715432
| 41> H        3.629968   -2.070962    0.811827
| 42> H        4.349762   -1.333108    2.263576
| 43> H        0.778593   -0.879257    3.663997
| 44> H        2.395525   -1.623101    3.851423
| 45> H        1.170731   -2.350778    2.777081
| 46> H        1.942377    0.770617   -4.110078
| 47> H        0.580686    1.544719   -3.247034
| 48> H        0.519142   -0.181425   -3.592607
| 49> H        3.848415    1.640003   -2.515852
| 50> H        3.881269    1.436754   -0.744032
| 51> H        2.749674    2.580347   -1.477575
| 52> H        3.680607   -0.803573   -3.090502
| 53> H        2.506614   -1.989838   -2.479223
| 54> H        3.765021   -1.364235   -1.402566
| 55> H       -1.422862    3.807855    1.484184
| 56> H       -1.180491    2.295670    2.412101
| 57> H       -2.158099    2.270920    0.935224
| 58> H        1.060677    4.511234    1.077988
| 59> H        2.402787    3.383240    0.772277
| 60> H        1.491749    3.290644    2.291344
| 61> H       -0.430215    4.323980   -0.805953
| 62> H       -0.883917    2.832935   -1.685612
| 63> H        0.806667    3.401312   -1.686904
| 64> H       -1.338643   -4.028887    0.591012
| 65> H       -2.108817   -2.414477    0.518490
| 66> H       -1.024200   -2.804556    1.859563
| 67> H        1.083825   -4.556345    0.001539
| 68> H        1.848365   -3.505467    1.212021
| 69> H        2.350340   -3.408454   -0.485526
| 70> H       -0.446095   -3.940916   -1.837012
| 71> H        0.566038   -2.668527   -2.561627
| 72> H       -1.135395   -2.323383   -2.198214
| 73> *
| 74>
| 75> %maxcore 5000
| 76>
| 77> %pal
| 78> nprocs = 24
| 79> end
| 80>
| 81>
| 82>                          ****END OF INPUT****

CARTESIAN COORDINATES (ANGSTROEM)
---------------------------------
  Ru     0.569145    0.005836    0.165179
  Se    -1.577691    0.219302   -1.256403
  P      2.150844   -0.339975    1.751510
  P      1.960774    0.268717   -1.689611
  P      0.209152    2.312844    0.427199
  P      0.201777   -2.273734   -0.170115
  C     -3.165297    0.017396   -0.190307
  C     -4.394132    0.053132   -0.874133
  C     -5.595730   -0.078160   -0.183035
  C     -5.602894   -0.248979    1.204636
  C     -4.386994   -0.285335    1.887322
  C     -3.179536   -0.153593    1.200055
  C      2.835775    1.024261    2.797241
  C      3.776990   -1.134294    1.350685
  C      1.582544   -1.410719    3.147602
  C      1.189258    0.640725   -3.324662
  C      3.233820    1.610023   -1.608962
  C      3.088037   -1.102636   -2.218553
  C     -1.285561    2.723129    1.411363
  C      1.411100    3.483245    1.220886
  C     -0.106458    3.317190   -1.091179
  C     -1.203048   -2.960414    0.792609
  C      1.495583   -3.557062    0.180127
  C     -0.249251   -2.863510   -1.860160
  H     -0.380046   -0.139952    1.501494
  H     -4.399385    0.184833   -1.953205
  H     -6.533440   -0.047821   -0.732848
  H     -6.541373   -0.352173    1.741881
  H     -4.372710   -0.417664    2.966984
  H     -2.231572   -0.183831    1.730627
  H      2.021868    1.525326    3.326216
  H      3.360848    1.757391    2.181578
  H      3.533951    0.611895    3.534364
  H      4.357450   -0.458164    0.715432
  H      3.629968   -2.070962    0.811827
  H      4.349762   -1.333108    2.263576
  H      0.778593   -0.879257    3.663997
  H      2.395525   -1.623101    3.851423
  H      1.170731   -2.350778    2.777081
  H      1.942377    0.770617   -4.110078
  H      0.580686    1.544719   -3.247034
  H      0.519142   -0.181425   -3.592607
  H      3.848415    1.640003   -2.515852
  H      3.881269    1.436754   -0.744032
  H      2.749674    2.580347   -1.477575
  H      3.680607   -0.803573   -3.090502
  H      2.506614   -1.989838   -2.479223
  H      3.765021   -1.364235   -1.402566
  H     -1.422862    3.807855    1.484184
  H     -1.180491    2.295670    2.412101
  H     -2.158099    2.270920    0.935224
  H      1.060677    4.511234    1.077988
  H      2.402787    3.383240    0.772277
  H      1.491749    3.290644    2.291344
  H     -0.430215    4.323980   -0.805953
  H     -0.883917    2.832935   -1.685612
  H      0.806667    3.401312   -1.686904
  H     -1.338643   -4.028887    0.591012
  H     -2.108817   -2.414477    0.518490
  H     -1.024200   -2.804556    1.859563
  H      1.083825   -4.556345    0.001539
  H      1.848365   -3.505467    1.212021
  H      2.350340   -3.408454   -0.485526
  H     -0.446095   -3.940916   -1.837012
  H      0.566038   -2.668527   -2.561627
  H     -1.135395   -2.323383   -2.198214

 Total Charge           Charge          ....    0
 Multiplicity           Mult            ....    1
 Number of Electrons    NEL             ....  260
 Basis Dimension        Dim             .... 1685

ORBITAL ENERGIES
----------------

  NO   OCC          E(Eh)            E(eV)
   0   2.0000    -454.145635    -12357.9310
   1   2.0000     -77.243539     -2101.9035
   2   2.0000     -77.237373     -2101.7358
   3   2.0000     -77.236555     -2101.7135
   4   2.0000     -77.235241     -2101.6777
   5   2.0000     -58.313930     -1586.8027
   6   2.0000     -52.267031     -1422.2582
   7   2.0000     -52.265067     -1422.2048
   8   2.0000     -52.263694     -1422.1674
   9   2.0000     -10.236696      -278.5547
  10   2.0000     -10.235930      -278.5338
  11   2.0000     -10.235680      -278.5270
  12   2.0000     -10.234475      -278.4942
  13   2.0000     -10.233941      -278.4797
  14   2.0000     -10.232988      -278.4538
  15   2.0000     -10.230801      -278.3942
  16   2.0000     -10.229687      -278.3639
  17   2.0000     -10.226329      -278.2725
  18   2.0000     -10.221618      -278.1444
  19   2.0000     -10.221601      -278.1439
  20   2.0000     -10.220067      -278.1022
  21   2.0000     -10.218656      -278.0638
  22   2.0000     -10.218381      -278.0563
  23   2.0000     -10.218214      -278.0518
  24   2.0000     -10.214342      -277.9464
  25   2.0000     -10.213929      -277.9351
  26   2.0000     -10.209514      -277.8150
  27   2.0000      -7.898425      -214.9271
  28   2.0000      -6.666604      -181.4075
  29   2.0000      -6.661310      -181.2635
  30   2.0000      -6.660637      -181.2451
  31   2.0000      -6.659245      -181.2073
  32   2.0000      -5.796459      -157.7297
  33   2.0000      -5.789746      -157.5470
  34   2.0000      -5.785312      -157.4263
  35   2.0000      -4.787724      -130.2806
  36   2.0000      -4.787538      -130.2755
  37   2.0000      -4.784204      -130.1848
  38   2.0000      -4.782525      -130.1391
  39   2.0000      -4.781949      -130.1234
  40   2.0000      -4.781779      -130.1188
  41   2.0000      -4.781538      -130.1123
  42   2.0000      -4.780438      -130.0823
  43   2.0000      -4.779908      -130.0679
  44   2.0000      -4.778914      -130.0409
  45   2.0000      -4.777952      -130.0147
  46   2.0000      -4.776825      -129.9840
  47   2.0000      -2.966200       -80.7144
  48   2.0000      -2.094825       -57.0031
  49   2.0000      -2.093484       -56.9666
  50   2.0000      -2.089708       -56.8638
  51   2.0000      -2.084050       -56.7099
  52   2.0000      -2.083673       -56.6996
  53   2.0000      -1.823728       -49.6262
  54   2.0000      -1.821747       -49.5723
  55   2.0000      -1.818230       -49.4766
  56   2.0000      -0.841464       -22.8974
  57   2.0000      -0.786471       -21.4010
  58   2.0000      -0.779478       -21.2107
  59   2.0000      -0.775285       -21.0966
  60   2.0000      -0.773288       -21.0422
  61   2.0000      -0.741296       -20.1717
  62   2.0000      -0.731737       -19.9116
  63   2.0000      -0.710971       -19.3465
  64   2.0000      -0.707500       -19.2521
  65   2.0000      -0.707173       -19.2431
  66   2.0000      -0.702979       -19.1290
  67   2.0000      -0.700427       -19.0596
  68   2.0000      -0.695667       -18.9301
  69   2.0000      -0.694273       -18.8921
  70   2.0000      -0.693630       -18.8746
  71   2.0000      -0.640334       -17.4244
  72   2.0000      -0.590194       -16.0600
  73   2.0000      -0.568774       -15.4771
  74   2.0000      -0.561684       -15.2842
  75   2.0000      -0.553570       -15.0634
  76   2.0000      -0.548050       -14.9132
  77   2.0000      -0.545047       -14.8315
  78   2.0000      -0.496033       -13.4978
  79   2.0000      -0.474947       -12.9240
  80   2.0000      -0.464765       -12.6469
  81   2.0000      -0.461917       -12.5694
  82   2.0000      -0.456855       -12.4317
  83   2.0000      -0.454864       -12.3775
  84   2.0000      -0.448633       -12.2079
  85   2.0000      -0.444848       -12.1049
  86   2.0000      -0.442091       -12.0299
  87   2.0000      -0.438766       -11.9394
  88   2.0000      -0.438361       -11.9284
  89   2.0000      -0.435307       -11.8453
  90   2.0000      -0.433310       -11.7910
  91   2.0000      -0.431722       -11.7478
  92   2.0000      -0.426968       -11.6184
  93   2.0000      -0.418834       -11.3971
  94   2.0000      -0.416512       -11.3339
  95   2.0000      -0.415033       -11.2936
  96   2.0000      -0.412585       -11.2270
  97   2.0000      -0.409909       -11.1542
  98   2.0000      -0.406243       -11.0544
  99   2.0000      -0.405265       -11.0278
 100   2.0000      -0.403542       -10.9809
 101   2.0000      -0.402710       -10.9583
 102   2.0000      -0.400836       -10.9073
 103   2.0000      -0.399298       -10.8655
 104   2.0000      -0.393512       -10.7080
 105   2.0000      -0.392175       -10.6716
 106   2.0000      -0.377828       -10.2812
 107   2.0000      -0.361278        -9.8309
 108   2.0000      -0.354090        -9.6353
 109   2.0000      -0.352258        -9.5854
 110   2.0000      -0.351401        -9.5621
 111   2.0000      -0.343659        -9.3514
 112   2.0000      -0.341342        -9.2884
 113   2.0000      -0.338914        -9.2223
 114   2.0000      -0.336033        -9.1439
 115   2.0000      -0.335193        -9.1211
 116   2.0000      -0.333045        -9.0626
 117   2.0000      -0.331372        -9.0171
 118   2.0000      -0.325408        -8.8548
 119   2.0000      -0.319809        -8.7024
 120   2.0000      -0.293931        -7.9983
 121   2.0000      -0.274752        -7.4764
 122   2.0000      -0.256075        -6.9682
 123   2.0000      -0.243076        -6.6144
 124   2.0000      -0.241218        -6.5639
 125   2.0000      -0.234470        -6.3802
 126   2.0000      -0.223105        -6.0710
 127   2.0000      -0.213637        -5.8134
 128   2.0000      -0.199700        -5.4341
 129   2.0000      -0.169551        -4.6137
 130   0.0000      -0.036580        -0.9954
 131   0.0000      -0.024769        -0.6740
 132   0.0000      -0.023752        -0.6463
 133   0.0000      -0.020963        -0.5704
 134   0.0000      -0.012243        -0.3331

MULLIKEN ATOMIC CHARGES
-----------------------
   0 Ru:   -1.327962
   1 Se:   -0.322849
   2 P :    2.615498
   3 P :    2.441982
   4 P :    2.651838
   5 P :    2.407269
   6 C :    1.249799
   7 C :   -1.855525
   8 C :   -0.642865
   9 C :   -0.448667
  10 C :   -1.339507
  11 C :    0.883083
  12 C :   -2.503415
  13 C :   -2.271920
  14 C :   -2.681941
  15 C :   -2.613246
  16 C :   -2.322313
  17 C :   -2.183912
  18 C :   -2.053974
  19 C :   -2.261499
  20 C :   -2.340855
  21 C :   -2.135232
  22 C :   -2.266499
  23 C :   -2.207585
  24 H :   -0.106175
  25 H :    0.339445
  26 H :    0.462739
  27 H :    0.417208
  28 H :    0.510001
  29 H :    0.004482
  30 H :    0.492292
  31 H :    0.514220
  32 H :    0.729264
  33 H :    0.543635
  34 H :    0.399357
  35 H :    0.705392
  36 H :    0.573345
  37 H :    0.657719
  38 H :    0.616191
  39 H :    0.713337
  40 H :    0.535094
  41 H :    0.526984
  42 H :    0.616134
  43 H :    0.468261
  44 H :    0.598846
  45 H :    0.652655
  46 H :    0.597507
  47 H :    0.367769
  48 H :    0.727095
  49 H :    0.421562
  50 H :    0.309248
  51 H :    0.785018
  52 H :    0.324991
  53 H :    0.487169
  54 H :    0.695341
  55 H :    0.290075
  56 H :    0.620752
  57 H :    0.771509
  58 H :    0.356057
  59 H :    0.426591
  60 H :    0.717752
  61 H :    0.593794
  62 H :    0.343367
  63 H :    0.695022
  64 H :    0.629507
  65 H :    0.399740
Sum of atomic charges:   -0.0000000

LOEWDIN ATOMIC CHARGES
----------------------
   0 Ru:   -0.076074
   1 Se:    0.692854
   2 P :    0.759678
   3 P :    0.770382
   4 P :    0.774126
   5 P :    0.769442
   6 C :   -0.586907
   7 C :   -0.070422
   8 C :   -0.007637
   9 C :   -0.011917
  10 C :    0.000445
  11 C :   -0.096844
  12 C :   -0.039160
  13 C :   -0.030949
  14 C :   -0.039653
  15 C :   -0.045407
  16 C :   -0.031113
  17 C :   -0.026944
  18 C :   -0.029261
  19 C :   -0.035064
  20 C :   -0.059422
  21 C :   -0.016700
  22 C :   -0.030739
  23 C :   -0.051197
  24 H :   -0.102605
  25 H :   -0.013209
  26 H :   -0.001084
  27 H :   -0.006176
  28 H :    0.000368
  29 H :   -0.064471
  30 H :   -0.058958
  31 H :   -0.062506
  32 H :   -0.047119
  33 H :   -0.064251
  34 H :   -0.084565
  35 H :   -0.046922
  36 H :   -0.050237
  37 H :   -0.046790
  38 H :   -0.087677
  39 H :   -0.046254
  40 H :   -0.073124
  41 H :   -0.064033
  42 H :   -0.046928
  43 H :   -0.063677
  44 H :   -0.083135
  45 H :   -0.046145
  46 H :   -0.079266
  47 H :   -0.073697
  48 H :   -0.044469
  49 H :   -0.048165
  50 H :   -0.074312
  51 H :   -0.047960
  52 H :   -0.066350
  53 H :   -0.072889
  54 H :   -0.047667
  55 H :   -0.111286
  56 H :   -0.072801
  57 H :   -0.043775
  58 H :   -0.069446
  59 H :   -0.054473
  60 H :   -0.046429
  61 H :   -0.076394
  62 H :   -0.066707
  63 H :   -0.046023
  64 H :   -0.075235
  65 H :   -0.104681

  Mayer bond orders larger than 0.100000
B(  0-Ru,  2-P ) :   1.3465 B(  0-Ru,  3-P ) :   1.3887 B(  0-Ru,  4-P ) :   1.0614
B(  0-Ru,  5-P ) :   1.0331 B(  0-Ru,  6-C ) :  -0.1450 B(  0-Ru, 12-C ) :   0.2490
B(  0-Ru, 13-C ) :   0.1622 B(  0-Ru, 14-C ) :   0.1368 B(  0-Ru, 16-C ) :   0.1026
B(  0-Ru, 20-C ) :   0.1180 B(  0-Ru, 21-C ) :   0.1217 B(  0-Ru, 23-C ) :   0.1697
B(  0-Ru, 24-H ) :   0.8769 B(  1-Se,  2-P ) :   0.1022 B(  1-Se,  3-P ) :  -0.3737
B(  1-Se,  4-P ) :   0.2393 B(  1-Se,  5-P ) :   0.1936 B(  1-Se,  6-C ) :   0.4065
B(  1-Se,  9-C ) :   0.1210 B(  1-Se, 11-C ) :   0.1741 B(  1-Se, 18-C ) :  -0.1068
B(  1-Se, 21-C ) :  -0.1595 B(  1-Se, 23-C ) :  -0.1322 B(  1-Se, 29-H ) :   0.4243
B(  2-P ,  3-P ) :   0.4612 B(  2-P ,  4-P ) :  -0.1831 B(  2-P ,  5-P ) :   0.2829
B(  2-P , 12-C ) :  -0.4798 B(  2-P , 13-C ) :  -0.3698 B(  2-P , 14-C ) :  -0.4630
B(  2-P , 22-C ) :  -0.1191 B(  2-P , 30-H ) :  -0.1955 B(  2-P , 31-H ) :  -0.2281
B(  2-P , 33-H ) :  -0.1477 B(  2-P , 34-H ) :  -0.1277 B(  2-P , 36-H ) :  -0.1702
B(  2-P , 38-H ) :  -0.2177 B(  3-P , 15-C ) :  -0.4874 B(  3-P , 16-C ) :  -0.2301
B(  3-P , 17-C ) :  -0.4243 B(  3-P , 24-H ) :   0.2011 B(  3-P , 39-H ) :  -0.1326
B(  3-P , 40-H ) :  -0.1638 B(  3-P , 41-H ) :  -0.1960 B(  3-P , 43-H ) :  -0.1467
B(  3-P , 44-H ) :  -0.1317 B(  3-P , 46-H ) :  -0.1089 B(  4-P ,  5-P ) :   0.2705
B(  4-P ,  6-C ) :   0.1430 B(  4-P ,  7-C ) :  -0.1189 B(  4-P , 12-C ) :  -0.1454
B(  4-P , 18-C ) :  -0.2314 B(  4-P , 19-C ) :  -0.1879 B(  4-P , 20-C ) :  -0.2589
B(  4-P , 24-H ) :  -0.1822 B(  4-P , 49-H ) :  -0.2411 B(  4-P , 50-H ) :  -0.1707
B(  4-P , 52-H ) :  -0.2368 B(  4-P , 53-H ) :  -0.1318 B(  4-P , 55-H ) :  -0.1921
B(  4-P , 56-H ) :  -0.1881 B(  5-P , 21-C ) :  -0.1399 B(  5-P , 22-C ) :  -0.1142
B(  5-P , 23-C ) :  -0.2851 B(  5-P , 24-H ) :  -0.1710 B(  5-P , 58-H ) :  -0.1456
B(  5-P , 59-H ) :  -0.2752 B(  5-P , 61-H ) :  -0.1025 B(  5-P , 62-H ) :  -0.1316
B(  5-P , 64-H ) :  -0.1482 B(  5-P , 65-H ) :  -0.1496 B(  6-C ,  7-C ) :  -0.6478
B(  6-C ,  8-C ) :  -0.1431 B(  6-C ,  9-C ) :  -0.1250 B(  6-C , 10-C ) :   0.4311
B(  6-C , 11-C ) :   0.1368 B(  6-C , 25-H ) :  -0.3136 B(  6-C , 29-H ) :  -0.7146
B(  7-C ,  8-C ) :   1.5023 B(  7-C , 11-C ) :  -0.7223 B(  7-C , 25-H ) :   1.1587
B(  8-C ,  9-C ) :   0.7972 B(  8-C , 10-C ) :   0.2144 B(  8-C , 26-H ) :   0.8990
B(  8-C , 27-H ) :  -0.1355 B(  9-C , 10-C ) :   0.8045 B(  9-C , 27-H ) :   1.0574
B( 10-C , 11-C ) :   0.3763 B( 10-C , 27-H ) :  -0.2195 B( 10-C , 28-H ) :   0.8293
B( 11-C , 24-H ) :  -0.2660 B( 11-C , 28-H ) :  -0.1986 B( 11-C , 29-H ) :   1.3505
B( 12-C , 13-C ) :   0.1252 B( 12-C , 14-C ) :   0.2191 B( 12-C , 30-H ) :   0.9902
B( 12-C , 31-H ) :   0.9496 B( 12-C , 32-H ) :   0.5522 B( 13-C , 14-C ) :   0.3767
B( 13-C , 33-H ) :   0.8253 B( 13-C , 34-H ) :   1.0353 B( 13-C , 35-H ) :   0.5829
B( 13-C , 36-H ) :  -0.1013 B( 14-C , 22-C ) :   0.1603 B( 14-C , 36-H ) :   1.0490
B( 14-C , 37-H ) :   0.6638 B( 14-C , 38-H ) :   0.7935 B( 15-C , 16-C ) :   0.2344
B( 15-C , 17-C ) :   0.1921 B( 15-C , 39-H ) :   0.5527 B( 15-C , 40-H ) :   1.0064
B( 15-C , 41-H ) :   1.0044 B( 16-C , 17-C ) :   0.2574 B( 16-C , 42-H ) :   0.7861
B( 16-C , 43-H ) :   1.0267 B( 16-C , 44-H ) :   0.7807 B( 17-C , 45-H ) :   0.7063
B( 17-C , 46-H ) :   0.7231 B( 17-C , 47-H ) :   1.0655 B( 18-C , 19-C ) :   0.1503
B( 18-C , 20-C ) :   0.2526 B( 18-C , 48-H ) :   0.5485 B( 18-C , 49-H ) :   1.0570
B( 18-C , 50-H ) :   1.0662 B( 19-C , 20-C ) :   0.2533 B( 19-C , 51-H ) :   0.4015
B( 19-C , 52-H ) :   1.1697 B( 19-C , 53-H ) :   0.8919 B( 20-C , 54-H ) :   0.5603
B( 20-C , 55-H ) :   1.1924 B( 20-C , 56-H ) :   0.7906 B( 21-C , 22-C ) :   0.1848
B( 21-C , 23-C ) :   0.2542 B( 21-C , 29-H ) :  -0.1066 B( 21-C , 57-H ) :   0.4521
B( 21-C , 58-H ) :   1.0059 B( 21-C , 59-H ) :   1.0901 B( 22-C , 23-C ) :   0.1960
B( 22-C , 60-H ) :   0.5468 B( 22-C , 61-H ) :   0.7573 B( 22-C , 62-H ) :   1.0912
B( 23-C , 63-H ) :   0.5894 B( 23-C , 64-H ) :   0.7718 B( 23-C , 65-H ) :   1.1038
B( 30-H , 31-H ) :   0.2582 B( 33-H , 34-H ) :   0.3276 B( 36-H , 37-H ) :   0.1398
B( 36-H , 38-H ) :   0.1163 B( 40-H , 41-H ) :   0.2785 B( 43-H , 44-H ) :   0.2200
B( 46-H , 47-H ) :   0.3202 B( 49-H , 50-H ) :   0.2315 B( 52-H , 53-H ) :   0.2496
B( 54-H , 56-H ) :   0.1142 B( 55-H , 56-H ) :   0.2772 B( 57-H , 59-H ) :   0.1143
B( 58-H , 59-H ) :   0.2568 B( 60-H , 62-H ) :   0.1148 B( 61-H , 62-H ) :   0.3106
B( 64-H , 65-H ) :   0.2282

Dispersion correction           -0.019365305
FINAL SINGLE POINT ENERGY     -4572.903431424771

DIPOLE MOMENT
-------------
                                X             Y             Z
Electronic contribution:      6.65486       3.78482      -7.30941
Nuclear contribution   :     -4.37445      -3.89216       7.69405
                        -----------------------------------------
Total Dipole Moment    :      2.28041      -0.10733       0.38464
                        -----------------------------------------
Magnitude (a.u.)       :      2.31511
Magnitude (Debye)      :      5.88455

Rotational constants in cm-1:     0.006518     0.004113     0.003881
Rotational constants in MHz :   195.407297   123.317842   116.359449

                             ****ORCA TERMINATED NORMALLY****
TOTAL RUN TIME: 0 days 1 hours 12 minutes 0 seconds 254 msec
