                         Program Version 4.2.0 -  RELEASE  -
|  1> #
|  2> # MOR33_pr28 M06-D3/Def2-TZVPPD
|  3> #
|  4> ! m06 d3zero def2-tzvppd def2/jk grid4 nofinalgrid
|  5>
|  6> *xyz 0 1
|  7> C        1.962238    1.228976    0.498763
|  8> C        1.599117    0.285883    1.541183
|  9> C        2.190996   -0.926462   -0.368778
| 10> C        2.300550    0.493131   -0.671789
| 11> C        2.081248    2.713946    0.664976
| 12> H        1.434728    3.080045    1.466376
| 13> H        1.821015    3.245065   -0.254703
| 14> H        3.112287    2.986784    0.927647
| 15> C        2.741378    1.051608   -1.988266
| 16> H        2.535990    2.123448   -2.051886
| 17> H        2.213045    0.558789   -2.809947
| 18> H        3.820515    0.902993   -2.128525
| 19> C        2.527241   -2.035347   -1.317221
| 20> H        3.613873   -2.134320   -1.446849
| 21> H        2.080344   -1.846887   -2.298459
| 22> H        2.144835   -2.993343   -0.953257
| 23> C        1.716574   -2.315630    1.788054
| 24> H        2.711935   -2.577282    2.171299
| 25> H        1.368788   -3.152284    1.175589
| 26> H        1.050088   -2.217418    2.648594
| 27> C        1.340513    0.619038    2.979845
| 28> H        2.276059    0.647386    3.557074
| 29> H        0.683714   -0.121696    3.445256
| 30> H        0.861589    1.596880    3.080055
| 31> Ru       0.207249   -0.005545   -0.119227
| 32> Cl      -0.429544   -0.245973   -2.480800
| 33> P       -1.456891    1.528216    0.068580
| 34> C       -1.650760    2.737817   -1.304822
| 35> H       -1.703179    2.179367   -2.242601
| 36> H       -0.763254    3.377318   -1.338338
| 37> H       -2.542801    3.360896   -1.175052
| 38> C       -1.549065    2.651656    1.528190
| 39> H       -2.472379    3.241595    1.506577
| 40> H       -0.697323    3.336564    1.527717
| 41> H       -1.520496    2.059136    2.446687
| 42> C       -3.144680    0.720288    0.161598
| 43> H       -3.432756    0.709722    1.219807
| 44> H       -3.887248    1.321720   -0.374189
| 45> C        1.787636   -1.042026    1.001372
| 46> P       -1.484414   -1.469966    0.216463
| 47> H       -2.382409   -3.625079   -0.568542
| 48> H       -0.624918   -3.689033   -0.270965
| 49> H       -1.236340   -2.863867   -1.723131
| 50> C       -3.065590   -0.710530   -0.380679
| 51> C       -1.439182   -3.076884   -0.670420
| 52> C       -1.931261   -2.000447    1.926464
| 53> H       -2.988264   -0.701756   -1.472521
| 54> H       -3.935017   -1.311110   -0.088429
| 55> H       -1.104361   -2.563780    2.366010
| 56> H       -2.827619   -2.630913    1.925421
| 57> H       -2.109292   -1.117280    2.546403
| 58> *
| 59>
| 60> %maxcore 5000
| 61>
| 62> %pal
| 63> nprocs = 24
| 64> end
| 65>
| 66>
| 67>                          ****END OF INPUT****

CARTESIAN COORDINATES (ANGSTROEM)
---------------------------------
  C      1.962238    1.228976    0.498763
  C      1.599117    0.285883    1.541183
  C      2.190996   -0.926462   -0.368778
  C      2.300550    0.493131   -0.671789
  C      2.081248    2.713946    0.664976
  H      1.434728    3.080045    1.466376
  H      1.821015    3.245065   -0.254703
  H      3.112287    2.986784    0.927647
  C      2.741378    1.051608   -1.988266
  H      2.535990    2.123448   -2.051886
  H      2.213045    0.558789   -2.809947
  H      3.820515    0.902993   -2.128525
  C      2.527241   -2.035347   -1.317221
  H      3.613873   -2.134320   -1.446849
  H      2.080344   -1.846887   -2.298459
  H      2.144835   -2.993343   -0.953257
  C      1.716574   -2.315630    1.788054
  H      2.711935   -2.577282    2.171299
  H      1.368788   -3.152284    1.175589
  H      1.050088   -2.217418    2.648594
  C      1.340513    0.619038    2.979845
  H      2.276059    0.647386    3.557074
  H      0.683714   -0.121696    3.445256
  H      0.861589    1.596880    3.080055
  Ru     0.207249   -0.005545   -0.119227
  Cl    -0.429544   -0.245973   -2.480800
  P     -1.456891    1.528216    0.068580
  C     -1.650760    2.737817   -1.304822
  H     -1.703179    2.179367   -2.242601
  H     -0.763254    3.377318   -1.338338
  H     -2.542801    3.360896   -1.175052
  C     -1.549065    2.651656    1.528190
  H     -2.472379    3.241595    1.506577
  H     -0.697323    3.336564    1.527717
  H     -1.520496    2.059136    2.446687
  C     -3.144680    0.720288    0.161598
  H     -3.432756    0.709722    1.219807
  H     -3.887248    1.321720   -0.374189
  C      1.787636   -1.042026    1.001372
  P     -1.484414   -1.469966    0.216463
  H     -2.382409   -3.625079   -0.568542
  H     -0.624918   -3.689033   -0.270965
  H     -1.236340   -2.863867   -1.723131
  C     -3.065590   -0.710530   -0.380679
  C     -1.439182   -3.076884   -0.670420
  C     -1.931261   -2.000447    1.926464
  H     -2.988264   -0.701756   -1.472521
  H     -3.935017   -1.311110   -0.088429
  H     -1.104361   -2.563780    2.366010
  H     -2.827619   -2.630913    1.925421
  H     -2.109292   -1.117280    2.546403

 Total Charge           Charge          ....    0
 Multiplicity           Mult            ....    1
 Number of Electrons    NEL             ....  190
 Basis Dimension        Dim             .... 1322

ORBITAL ENERGIES
----------------

  NO   OCC          E(Eh)            E(eV)
   0   2.0000    -101.617425     -2765.1507
   1   2.0000     -77.237218     -2101.7316
   2   2.0000     -77.237066     -2101.7274
   3   2.0000     -10.254107      -279.0284
   4   2.0000     -10.251014      -278.9443
   5   2.0000     -10.247498      -278.8486
   6   2.0000     -10.245724      -278.8003
   7   2.0000     -10.242624      -278.7160
   8   2.0000     -10.240643      -278.6621
   9   2.0000     -10.237491      -278.5763
  10   2.0000     -10.236207      -278.5413
  11   2.0000     -10.235939      -278.5340
  12   2.0000     -10.235927      -278.5337
  13   2.0000     -10.235407      -278.5196
  14   2.0000     -10.234869      -278.5050
  15   2.0000     -10.226733      -278.2836
  16   2.0000     -10.222743      -278.1750
  17   2.0000     -10.220841      -278.1232
  18   2.0000     -10.218815      -278.0681
  19   2.0000      -9.492772      -258.3115
  20   2.0000      -7.198542      -195.8823
  21   2.0000      -7.194581      -195.7745
  22   2.0000      -7.194472      -195.7715
  23   2.0000      -6.661873      -181.2788
  24   2.0000      -6.661705      -181.2742
  25   2.0000      -4.782833      -130.1475
  26   2.0000      -4.782765      -130.1456
  27   2.0000      -4.782463      -130.1374
  28   2.0000      -4.782288      -130.1327
  29   2.0000      -4.779581      -130.0590
  30   2.0000      -4.779372      -130.0533
  31   2.0000      -2.976074       -80.9831
  32   2.0000      -1.850069       -50.3429
  33   2.0000      -1.822645       -49.5967
  34   2.0000      -1.820930       -49.5500
  35   2.0000      -0.895383       -24.3646
  36   2.0000      -0.807393       -21.9703
  37   2.0000      -0.787857       -21.4387
  38   2.0000      -0.782224       -21.2854
  39   2.0000      -0.766449       -20.8561
  40   2.0000      -0.738390       -20.0926
  41   2.0000      -0.735897       -20.0248
  42   2.0000      -0.729617       -19.8539
  43   2.0000      -0.720910       -19.6170
  44   2.0000      -0.717927       -19.5358
  45   2.0000      -0.704305       -19.1651
  46   2.0000      -0.701255       -19.0821
  47   2.0000      -0.640436       -17.4272
  48   2.0000      -0.632094       -17.2002
  49   2.0000      -0.625338       -17.0163
  50   2.0000      -0.571504       -15.5514
  51   2.0000      -0.534947       -14.5566
  52   2.0000      -0.522840       -14.2272
  53   2.0000      -0.521679       -14.1956
  54   2.0000      -0.478039       -13.0081
  55   2.0000      -0.472844       -12.8667
  56   2.0000      -0.465480       -12.6664
  57   2.0000      -0.458886       -12.4869
  58   2.0000      -0.447396       -12.1743
  59   2.0000      -0.442127       -12.0309
  60   2.0000      -0.440334       -11.9821
  61   2.0000      -0.437981       -11.9181
  62   2.0000      -0.435783       -11.8583
  63   2.0000      -0.431286       -11.7359
  64   2.0000      -0.426852       -11.6152
  65   2.0000      -0.423462       -11.5230
  66   2.0000      -0.421005       -11.4561
  67   2.0000      -0.416365       -11.3299
  68   2.0000      -0.414902       -11.2901
  69   2.0000      -0.411527       -11.1982
  70   2.0000      -0.408158       -11.1066
  71   2.0000      -0.404509       -11.0072
  72   2.0000      -0.401713       -10.9312
  73   2.0000      -0.400002       -10.8846
  74   2.0000      -0.391185       -10.6447
  75   2.0000      -0.385635       -10.4937
  76   2.0000      -0.383886       -10.4461
  77   2.0000      -0.380963       -10.3665
  78   2.0000      -0.355506        -9.6738
  79   2.0000      -0.349210        -9.5025
  80   2.0000      -0.347446        -9.4545
  81   2.0000      -0.343016        -9.3339
  82   2.0000      -0.341667        -9.2972
  83   2.0000      -0.334467        -9.1013
  84   2.0000      -0.324375        -8.8267
  85   2.0000      -0.305638        -8.3168
  86   2.0000      -0.305135        -8.3032
  87   2.0000      -0.298428        -8.1206
  88   2.0000      -0.269542        -7.3346
  89   2.0000      -0.264630        -7.2009
  90   2.0000      -0.246612        -6.7106
  91   2.0000      -0.243590        -6.6284
  92   2.0000      -0.211148        -5.7456
  93   2.0000      -0.192321        -5.2333
  94   2.0000      -0.180506        -4.9118
  95   0.0000      -0.034093        -0.9277
  96   0.0000      -0.025467        -0.6930
  97   0.0000      -0.021441        -0.5834
  98   0.0000      -0.018696        -0.5087
  99   0.0000      -0.008292        -0.2256

MULLIKEN ATOMIC CHARGES
-----------------------
   0 C :    0.683938
   1 C :    1.527694
   2 C :    0.924071
   3 C :    0.875114
   4 C :   -2.552058
   5 H :    0.584838
   6 H :    0.490531
   7 H :    0.846296
   8 C :   -2.931621
   9 H :    0.722097
  10 H :    0.536895
  11 H :    0.703713
  12 C :   -2.870401
  13 H :    0.743916
  14 H :    0.589771
  15 H :    0.661699
  16 C :   -2.509838
  17 H :    0.887598
  18 H :    0.522034
  19 H :    0.438977
  20 C :   -3.186745
  21 H :    0.790735
  22 H :    0.621679
  23 H :    0.623058
  24 Ru:   -1.386567
  25 Cl:   -0.609906
  26 P :    2.258193
  27 C :   -2.658082
  28 H :    0.561897
  29 H :    0.623579
  30 H :    0.695447
  31 C :   -2.267521
  32 H :    0.758466
  33 H :    0.504150
  34 H :    0.373386
  35 C :   -2.154625
  36 H :    0.690066
  37 H :    0.967543
  38 C :    0.920475
  39 P :    2.216440
  40 H :    0.719905
  41 H :    0.590008
  42 H :    0.524916
  43 C :   -1.391872
  44 C :   -2.668707
  45 C :   -2.432125
  46 H :    0.698707
  47 H :    0.912135
  48 H :    0.571580
  49 H :    0.749363
  50 H :    0.509158
Sum of atomic charges:    0.0000000

LOEWDIN ATOMIC CHARGES
----------------------
   0 C :   -0.247340
   1 C :   -0.265643
   2 C :   -0.266772
   3 C :   -0.262961
   4 C :    0.161042
   5 H :   -0.033205
   6 H :   -0.013264
   7 H :    0.007838
   8 C :    0.150519
   9 H :   -0.012987
  10 H :   -0.045574
  11 H :    0.004646
  12 C :    0.155194
  13 H :    0.001927
  14 H :   -0.027393
  15 H :   -0.015697
  16 C :    0.158512
  17 H :    0.008918
  18 H :   -0.019520
  19 H :   -0.028084
  20 C :    0.157867
  21 H :    0.005009
  22 H :   -0.014368
  23 H :   -0.025021
  24 Ru:    0.494109
  25 Cl:    0.001841
  26 P :    0.814838
  27 C :   -0.038761
  28 H :   -0.094381
  29 H :   -0.055048
  30 H :   -0.049517
  31 C :   -0.021634
  32 H :   -0.044542
  33 H :   -0.067904
  34 H :   -0.057356
  35 C :   -0.207629
  36 H :   -0.028096
  37 H :   -0.017890
  38 C :   -0.262059
  39 P :    0.792265
  40 H :   -0.045914
  41 H :   -0.059802
  42 H :   -0.081474
  43 C :   -0.235611
  44 C :   -0.023073
  45 C :   -0.006276
  46 H :   -0.052727
  47 H :   -0.016306
  48 H :   -0.069598
  49 H :   -0.045592
  50 H :   -0.055510

  Mayer bond orders larger than 0.100000
B(  0-C ,  1-C ) :   0.5311 B(  0-C ,  3-C ) :   0.7036 B(  0-C ,  4-C ) :  -0.4045
B(  0-C ,  5-H ) :  -0.2775 B(  0-C ,  6-H ) :  -0.4104 B(  0-C ,  9-H ) :   0.1059
B(  0-C , 20-C ) :   0.1275 B(  0-C , 23-H ) :   0.1045 B(  0-C , 24-Ru) :   0.8753
B(  0-C , 38-C ) :   0.2778 B(  1-C ,  2-C ) :   0.1637 B(  1-C ,  3-C ) :  -0.2398
B(  1-C ,  5-H ) :   0.1494 B(  1-C , 18-H ) :  -0.2003 B(  1-C , 19-H ) :   0.1779
B(  1-C , 20-C ) :  -1.2244 B(  1-C , 22-H ) :  -0.3366 B(  1-C , 23-H ) :  -0.3332
B(  1-C , 24-Ru) :  -0.3428 B(  1-C , 26-P ) :   0.3425 B(  1-C , 38-C ) :   0.6205
B(  1-C , 39-P ) :   0.1246 B(  1-C , 43-C ) :   0.1325 B(  1-C , 44-C ) :  -0.1060
B(  2-C ,  3-C ) :   0.7877 B(  2-C ,  8-C ) :  -0.2042 B(  2-C , 12-C ) :  -0.4271
B(  2-C , 14-H ) :  -0.3068 B(  2-C , 15-H ) :  -0.1693 B(  2-C , 18-H ) :   0.1924
B(  2-C , 19-H ) :  -0.2282 B(  2-C , 38-C ) :   0.6947 B(  2-C , 44-C ) :   0.1700
B(  3-C ,  5-H ) :  -0.1281 B(  3-C ,  6-H ) :   0.1067 B(  3-C ,  8-C ) :  -0.4259
B(  3-C ,  9-H ) :  -0.1364 B(  3-C , 10-H ) :  -0.3835 B(  3-C , 24-Ru) :   0.2107
B(  3-C , 25-Cl) :   0.3141 B(  3-C , 38-C ) :  -0.4041 B(  3-C , 39-P ) :  -0.1305
B(  4-C ,  5-H ) :   0.7647 B(  4-C ,  6-H ) :   1.1373 B(  4-C ,  7-H ) :   0.2220
B(  4-C ,  8-C ) :  -0.1142 B(  4-C , 20-C ) :  -0.1110 B(  4-C , 24-Ru) :   0.3006
B(  5-H ,  6-H ) :   0.3578 B(  5-H ,  7-H ) :   0.1101 B(  8-C ,  9-H ) :   0.4934
B(  8-C , 10-H ) :   0.9425 B(  8-C , 11-H ) :   0.6243 B(  8-C , 12-C ) :  -0.2132
B(  8-C , 24-Ru) :   0.2304 B(  9-H , 10-H ) :   0.2231 B(  9-H , 11-H ) :   0.1046
B( 10-H , 11-H ) :   0.1206 B( 12-C , 13-H ) :   0.5359 B( 12-C , 14-H ) :   0.8345
B( 12-C , 15-H ) :   0.6297 B( 12-C , 16-C ) :  -0.1613 B( 12-C , 24-Ru) :   0.2525
B( 12-C , 25-Cl) :  -0.1124 B( 13-H , 14-H ) :   0.1067 B( 14-H , 15-H ) :   0.2114
B( 16-C , 17-H ) :   0.1467 B( 16-C , 18-H ) :   1.0633 B( 16-C , 19-H ) :   1.0847
B( 16-C , 20-C ) :  -0.3302 B( 16-C , 24-Ru) :   0.3487 B( 16-C , 38-C ) :  -0.3129
B( 16-C , 39-P ) :  -0.1265 B( 18-H , 19-H ) :   0.4979 B( 18-H , 38-C ) :  -0.4890
B( 19-H , 38-C ) :  -0.3833 B( 20-C , 21-H ) :   0.3496 B( 20-C , 22-H ) :   0.9464
B( 20-C , 23-H ) :   0.8384 B( 20-C , 24-Ru) :   0.4195 B( 21-H , 23-H ) :   0.1222
B( 22-H , 23-H ) :   0.2964 B( 24-Ru, 25-Cl) :   0.3002 B( 24-Ru, 26-P ) :   1.3423
B( 24-Ru, 27-C ) :   0.2831 B( 24-Ru, 31-C ) :   0.1567 B( 24-Ru, 35-C ) :   0.1310
B( 24-Ru, 38-C ) :   1.0824 B( 24-Ru, 39-P ) :   1.2629 B( 24-Ru, 44-C ) :   0.2580
B( 24-Ru, 45-C ) :   0.2055 B( 26-P , 28-H ) :  -0.2002 B( 26-P , 29-H ) :  -0.2475
B( 26-P , 34-H ) :  -0.2639 B( 26-P , 35-C ) :   0.1377 B( 26-P , 36-H ) :   0.1404
B( 26-P , 38-C ) :  -0.1124 B( 26-P , 39-P ) :  -0.2056 B( 27-C , 28-H ) :   0.8912
B( 27-C , 29-H ) :   0.8713 B( 27-C , 30-H ) :   0.5556 B( 27-C , 31-C ) :   0.1727
B( 27-C , 35-C ) :   0.2775 B( 27-C , 36-H ) :  -0.1175 B( 28-H , 29-H ) :   0.2039
B( 31-C , 32-H ) :   0.4732 B( 31-C , 33-H ) :   0.8589 B( 31-C , 34-H ) :   1.1343
B( 31-C , 35-C ) :   0.1453 B( 33-H , 34-H ) :   0.2497 B( 35-C , 36-H ) :   0.4613
B( 35-C , 37-H ) :   0.1636 B( 35-C , 39-P ) :   0.5241 B( 35-C , 43-C ) :   0.8687
B( 35-C , 46-H ) :   0.1241 B( 35-C , 47-H ) :  -0.1754 B( 36-H , 37-H ) :   0.1630
B( 36-H , 43-C ) :   0.2117 B( 37-H , 43-C ) :  -0.1144 B( 38-C , 39-P ) :   0.1903
B( 38-C , 44-C ) :  -0.1451 B( 39-P , 41-H ) :  -0.2256 B( 39-P , 42-H ) :  -0.1774
B( 39-P , 43-C ) :  -0.1030 B( 39-P , 44-C ) :  -0.2154 B( 39-P , 48-H ) :  -0.1336
B( 39-P , 50-H ) :  -0.2066 B( 40-H , 44-C ) :   0.5668 B( 41-H , 42-H ) :   0.1993
B( 41-H , 44-C ) :   0.9209 B( 42-H , 44-C ) :   0.9339 B( 43-C , 45-C ) :   0.1933
B( 43-C , 46-H ) :   0.6493 B( 43-C , 47-H ) :   0.3931 B( 44-C , 45-C ) :   0.1603
B( 45-C , 48-H ) :   0.8194 B( 45-C , 49-H ) :   0.5013 B( 45-C , 50-H ) :   0.9532
B( 48-H , 50-H ) :   0.2055 B( 49-H , 50-H ) :   0.1186

Dispersion correction           -0.013611809
FINAL SINGLE POINT ENERGY     -1866.110467674519

DIPOLE MOMENT
-------------
                                X             Y             Z
Electronic contribution:     12.14978      -1.45062     -17.72326
Nuclear contribution   :    -12.48154       1.60484      19.54441
                        -----------------------------------------
Total Dipole Moment    :     -0.33176       0.15422       1.82115
                        -----------------------------------------
Magnitude (a.u.)       :      1.85753
Magnitude (Debye)      :      4.72148

Rotational constants in cm-1:     0.010225     0.008868     0.007900
Rotational constants in MHz :   306.523373   265.843264   236.824033

                             ****ORCA TERMINATED NORMALLY****
TOTAL RUN TIME: 0 days 0 hours 37 minutes 29 seconds 691 msec
