                         Program Version 4.2.0 -  RELEASE  -
|  1> #
|  2> # TMB08_C1 M06-D3/Def2-TZVPPD
|  3> #
|  4> ! m06 d3zero def2-tzvppd def2/jk grid4 nofinalgrid
|  5>
|  6> *xyz -1 1
|  7> O       -0.906881    0.014085    1.547895
|  8> Mo       0.376053    0.005978   -0.001071
|  9> O       -1.663172   -0.405524   -0.725982
| 10> S        1.900189   -1.271673    1.262125
| 11> C        2.414735   -2.638587    0.321741
| 12> C        1.961707   -2.798175   -0.938062
| 13> S        0.862636   -1.648766   -1.631530
| 14> S        1.558394    1.801029    0.984387
| 15> C        1.596911    3.127556   -0.137889
| 16> C        1.038164    3.004113   -1.358311
| 17> S        0.284978    1.511994   -1.829576
| 18> S       -2.828559   -0.609282    0.265517
| 19> C       -3.471491    1.031204    0.628759
| 20> H       -2.700467    1.513975    1.240208
| 21> H       -3.606824    1.576556   -0.316000
| 22> H       -4.419892    0.937929    1.179101
| 23> C       -4.093537   -1.069425   -0.932883
| 24> H       -3.796770   -2.046338   -1.337942
| 25> H       -5.068961   -1.152599   -0.429186
| 26> H       -4.123504   -0.329731   -1.745777
| 27> C       -0.609178    0.103975    2.901511
| 28> H       -0.060534    1.039756    3.130388
| 29> H       -1.547958    0.094647    3.495802
| 30> H        0.020434   -0.743420    3.237520
| 31> H        2.283338   -3.631534   -1.572173
| 32> H        3.135734   -3.322762    0.781228
| 33> H        1.069667    3.809818   -2.099793
| 34> H        2.115872    4.037362    0.182319
| 35> *
| 36>
| 37> %maxcore 5000
| 38>
| 39> %pal
| 40> nprocs = 24
| 41> end
| 42>
| 43>
| 44>                          ****END OF INPUT****

CARTESIAN COORDINATES (ANGSTROEM)
---------------------------------
  O     -0.906881    0.014085    1.547895
  Mo     0.376053    0.005978   -0.001071
  O     -1.663172   -0.405524   -0.725982
  S      1.900189   -1.271673    1.262125
  C      2.414735   -2.638587    0.321741
  C      1.961707   -2.798175   -0.938062
  S      0.862636   -1.648766   -1.631530
  S      1.558394    1.801029    0.984387
  C      1.596911    3.127556   -0.137889
  C      1.038164    3.004113   -1.358311
  S      0.284978    1.511994   -1.829576
  S     -2.828559   -0.609282    0.265517
  C     -3.471491    1.031204    0.628759
  H     -2.700467    1.513975    1.240208
  H     -3.606824    1.576556   -0.316000
  H     -4.419892    0.937929    1.179101
  C     -4.093537   -1.069425   -0.932883
  H     -3.796770   -2.046338   -1.337942
  H     -5.068961   -1.152599   -0.429186
  H     -4.123504   -0.329731   -1.745777
  C     -0.609178    0.103975    2.901511
  H     -0.060534    1.039756    3.130388
  H     -1.547958    0.094647    3.495802
  H      0.020434   -0.743420    3.237520
  H      2.283338   -3.631534   -1.572173
  H      3.135734   -3.322762    0.781228
  H      1.069667    3.809818   -2.099793
  H      2.115872    4.037362    0.182319

 Total Charge           Charge          ....   -1
 Multiplicity           Mult            ....    1
 Number of Electrons    NEL             ....  166
 Basis Dimension        Dim             ....  871

ORBITAL ENERGIES
----------------

  NO   OCC          E(Eh)            E(eV)
   0   2.0000     -89.043020     -2422.9838
   1   2.0000     -88.863681     -2418.1037
   2   2.0000     -88.862575     -2418.0736
   3   2.0000     -88.860091     -2418.0060
   4   2.0000     -88.859311     -2417.9848
   5   2.0000     -19.095368      -519.6114
   6   2.0000     -19.060756      -518.6696
   7   2.0000     -10.177358      -276.9400
   8   2.0000     -10.171846      -276.7900
   9   2.0000     -10.146122      -276.0900
  10   2.0000     -10.109719      -275.0994
  11   2.0000     -10.109292      -275.0878
  12   2.0000     -10.108420      -275.0641
  13   2.0000     -10.108113      -275.0557
  14   2.0000      -8.047272      -218.9774
  15   2.0000      -7.882447      -214.4923
  16   2.0000      -7.881295      -214.4609
  17   2.0000      -7.878937      -214.3968
  18   2.0000      -7.878148      -214.3753
  19   2.0000      -5.965893      -162.3402
  20   2.0000      -5.965329      -162.3249
  21   2.0000      -5.959396      -162.1634
  22   2.0000      -5.800851      -157.8492
  23   2.0000      -5.799775      -157.8199
  24   2.0000      -5.797413      -157.7556
  25   2.0000      -5.796646      -157.7348
  26   2.0000      -5.796465      -157.7298
  27   2.0000      -5.795216      -157.6958
  28   2.0000      -5.795154      -157.6942
  29   2.0000      -5.794154      -157.6669
  30   2.0000      -5.792545      -157.6232
  31   2.0000      -5.792016      -157.6088
  32   2.0000      -5.791608      -157.5977
  33   2.0000      -5.791353      -157.5907
  34   2.0000      -2.430951       -66.1495
  35   2.0000      -1.449506       -39.4431
  36   2.0000      -1.440148       -39.1884
  37   2.0000      -1.426518       -38.8175
  38   2.0000      -0.945418       -25.7261
  39   2.0000      -0.869223       -23.6528
  40   2.0000      -0.721950       -19.6453
  41   2.0000      -0.680044       -18.5049
  42   2.0000      -0.677179       -18.4270
  43   2.0000      -0.641993       -17.4695
  44   2.0000      -0.585571       -15.9342
  45   2.0000      -0.582841       -15.8599
  46   2.0000      -0.543784       -14.7971
  47   2.0000      -0.533481       -14.5168
  48   2.0000      -0.519122       -14.1260
  49   2.0000      -0.505488       -13.7550
  50   2.0000      -0.398251       -10.8370
  51   2.0000      -0.395147       -10.7525
  52   2.0000      -0.390015       -10.6128
  53   2.0000      -0.388532       -10.5725
  54   2.0000      -0.385451       -10.4887
  55   2.0000      -0.348525        -9.4838
  56   2.0000      -0.345306        -9.3963
  57   2.0000      -0.342424        -9.3178
  58   2.0000      -0.339916        -9.2496
  59   2.0000      -0.334454        -9.1010
  60   2.0000      -0.325891        -8.8679
  61   2.0000      -0.315939        -8.5971
  62   2.0000      -0.305315        -8.3080
  63   2.0000      -0.284697        -7.7470
  64   2.0000      -0.270075        -7.3491
  65   2.0000      -0.236729        -6.4417
  66   2.0000      -0.224187        -6.1004
  67   2.0000      -0.218614        -5.9488
  68   2.0000      -0.213031        -5.7969
  69   2.0000      -0.207887        -5.6569
  70   2.0000      -0.201279        -5.4771
  71   2.0000      -0.184168        -5.0115
  72   2.0000      -0.167658        -4.5622
  73   2.0000      -0.164458        -4.4751
  74   2.0000      -0.158971        -4.3258
  75   2.0000      -0.142001        -3.8640
  76   2.0000      -0.133502        -3.6328
  77   2.0000      -0.130939        -3.5630
  78   2.0000      -0.106869        -2.9081
  79   2.0000      -0.106631        -2.9016
  80   2.0000      -0.087778        -2.3886
  81   2.0000      -0.050241        -1.3671
  82   2.0000      -0.044983        -1.2241
  83   0.0000       0.031893         0.8678
  84   0.0000       0.055106         1.4995
  85   0.0000       0.060832         1.6553
  86   0.0000       0.068919         1.8754
  87   0.0000       0.075942         2.0665

MULLIKEN ATOMIC CHARGES
-----------------------
   0 O :    0.427907
   1 Mo:   -0.644788
   2 O :   -0.106805
   3 S :   -0.227331
   4 C :   -0.302186
   5 C :   -0.363830
   6 S :   -0.238657
   7 S :   -0.211734
   8 C :   -0.332598
   9 C :   -0.354464
  10 S :   -0.230933
  11 S :    0.677213
  12 C :   -1.845735
  13 H :    0.603902
  14 H :    0.563856
  15 H :    0.590496
  16 C :   -1.880901
  17 H :    0.604639
  18 H :    0.577585
  19 H :    0.532674
  20 C :   -1.402628
  21 H :    0.397899
  22 H :    0.408140
  23 H :    0.329134
  24 H :    0.333028
  25 H :    0.371632
  26 H :    0.356350
  27 H :    0.368133
Sum of atomic charges:   -1.0000000

LOEWDIN ATOMIC CHARGES
----------------------
   0 O :   -0.544993
   1 Mo:    0.264657
   2 O :   -0.692510
   3 S :    0.555631
   4 C :   -0.602998
   5 C :   -0.618035
   6 S :    0.536012
   7 S :    0.547747
   8 C :   -0.607385
   9 C :   -0.618842
  10 S :    0.532869
  11 S :    0.970423
  12 C :   -0.011899
  13 H :   -0.042837
  14 H :   -0.025901
  15 H :   -0.034453
  16 C :   -0.042865
  17 H :   -0.036008
  18 H :   -0.039459
  19 H :   -0.031609
  20 C :   -0.086461
  21 H :   -0.037603
  22 H :   -0.007594
  23 H :   -0.039869
  24 H :   -0.071166
  25 H :   -0.071351
  26 H :   -0.071973
  27 H :   -0.071530

  Mayer bond orders larger than 0.100000
B(  0-O ,  1-Mo) :   0.7148 B(  0-O ,  3-S ) :  -0.1421 B(  0-O ,  7-S ) :  -0.1107
B(  0-O , 11-S ) :  -0.2510 B(  0-O , 20-C ) :   0.4203 B(  1-Mo,  2-O ) :   0.4633
B(  1-Mo,  3-S ) :   1.4155 B(  1-Mo,  6-S ) :   1.4334 B(  1-Mo,  7-S ) :   1.3030
B(  1-Mo, 10-S ) :   1.3454 B(  1-Mo, 11-S ) :   0.1698 B(  1-Mo, 20-C ) :   0.1068
B(  2-O ,  6-S ) :  -0.2296 B(  2-O , 10-S ) :  -0.1472 B(  2-O , 11-S ) :   1.4422
B(  2-O , 16-C ) :   0.1352 B(  3-S ,  4-C ) :   0.7385 B(  3-S ,  7-S ) :  -0.1894
B(  4-C ,  5-C ) :   1.2697 B(  4-C , 24-H ) :  -0.1949 B(  4-C , 25-H ) :   1.0112
B(  5-C ,  6-S ) :   0.8724 B(  5-C , 24-H ) :   1.0653 B(  5-C , 25-H ) :  -0.1896
B(  6-S , 10-S ) :  -0.1195 B(  7-S ,  8-C ) :   0.7585 B(  8-C ,  9-C ) :   1.2619
B(  8-C , 26-H ) :  -0.1883 B(  8-C , 27-H ) :   1.0243 B(  9-C , 10-S ) :   0.8809
B(  9-C , 26-H ) :   1.0321 B(  9-C , 27-H ) :  -0.1945 B( 11-S , 12-C ) :   0.6950
B( 11-S , 16-C ) :   0.2798 B( 12-C , 13-H ) :   0.6333 B( 12-C , 14-H ) :   0.7626
B( 12-C , 15-H ) :   0.7451 B( 16-C , 17-H ) :   0.7291 B( 16-C , 18-H ) :   0.7526
B( 16-C , 19-H ) :   0.7993 B( 20-C , 21-H ) :   0.8963 B( 20-C , 22-H ) :   0.8924
B( 20-C , 23-H ) :   0.9493

Dispersion correction           -0.005358894
FINAL SINGLE POINT ENERGY     -2484.203423671860

DIPOLE MOMENT
-------------
                                X             Y             Z
Electronic contribution:     33.70013      -1.22230      -4.17561
Nuclear contribution   :    -37.01048       1.06082       4.72052
                        -----------------------------------------
Total Dipole Moment    :     -3.31035      -0.16147       0.54491
                        -----------------------------------------
Magnitude (a.u.)       :      3.35878
Magnitude (Debye)      :      8.53734

Rotational constants in cm-1:     0.012467     0.009914     0.008398
Rotational constants in MHz :   373.762122   297.203486   251.777416

                             ****ORCA TERMINATED NORMALLY****
TOTAL RUN TIME: 0 days 0 hours 8 minutes 52 seconds 550 msec
