                         Program Version 4.2.0 -  RELEASE  -
|  1> #
|  2> # TMB01_R1 M06-D3/Def2-TZVPPD
|  3> #
|  4> ! m06 d3zero def2-tzvppd def2/jk grid4 nofinalgrid
|  5>
|  6> *xyz 0 1
|  7> Zr      -0.000671    0.112924   -0.223454
|  8> C       -2.181938   -0.834851   -1.042825
|  9> C       -1.643164   -1.771750   -0.135830
| 10> C       -2.502306    0.332733   -0.316676
| 11> H       -1.308937   -2.768103   -0.380464
| 12> C       -1.636664   -1.184419    1.151214
| 13> H       -2.895434    1.248967   -0.729119
| 14> C       -2.175001    0.113493    1.036510
| 15> H       -1.306352   -1.655857    2.064126
| 16> H       -2.282924    0.831022    1.835850
| 17> C        1.600796   -1.794999   -0.006343
| 18> C        2.125532   -0.971960   -1.023204
| 19> C        1.653632   -1.076274    1.213076
| 20> H        2.228565   -1.232630   -2.063673
| 21> C        2.505388    0.254502   -0.432287
| 22> H        1.350619   -1.442345    2.182051
| 23> C        2.228391    0.183709    0.945544
| 24> H        2.903936    1.111956   -0.952399
| 25> H        2.382975    0.976423    1.661482
| 26> Cl       0.011968    2.512474    0.074703
| 27> H       -0.001250   -0.010619   -2.053074
| 28> H       -2.330784   -0.986753   -2.099038
| 29> H        1.234974   -2.802168   -0.132604
| 30> *
| 31>
| 32> %maxcore 5000
| 33>
| 34> %pal
| 35> nprocs = 24
| 36> end
| 37>
| 38>
| 39>                          ****END OF INPUT****

CARTESIAN COORDINATES (ANGSTROEM)
---------------------------------
  Zr    -0.000671    0.112924   -0.223454
  C     -2.181938   -0.834851   -1.042825
  C     -1.643164   -1.771750   -0.135830
  C     -2.502306    0.332733   -0.316676
  H     -1.308937   -2.768103   -0.380464
  C     -1.636664   -1.184419    1.151214
  H     -2.895434    1.248967   -0.729119
  C     -2.175001    0.113493    1.036510
  H     -1.306352   -1.655857    2.064126
  H     -2.282924    0.831022    1.835850
  C      1.600796   -1.794999   -0.006343
  C      2.125532   -0.971960   -1.023204
  C      1.653632   -1.076274    1.213076
  H      2.228565   -1.232630   -2.063673
  C      2.505388    0.254502   -0.432287
  H      1.350619   -1.442345    2.182051
  C      2.228391    0.183709    0.945544
  H      2.903936    1.111956   -0.952399
  H      2.382975    0.976423    1.661482
  Cl     0.011968    2.512474    0.074703
  H     -0.001250   -0.010619   -2.053074
  H     -2.330784   -0.986753   -2.099038
  H      1.234974   -2.802168   -0.132604

 Total Charge           Charge          ....    0
 Multiplicity           Mult            ....    1
 Number of Electrons    NEL             ....  100
 Basis Dimension        Dim             ....  664

ORBITAL ENERGIES
----------------

  NO   OCC          E(Eh)            E(eV)
   0   2.0000    -101.662899     -2766.3881
   1   2.0000     -10.258600      -279.1507
   2   2.0000     -10.257966      -279.1334
   3   2.0000     -10.257048      -279.1085
   4   2.0000     -10.256906      -279.1046
   5   2.0000     -10.256243      -279.0866
   6   2.0000     -10.255879      -279.0767
   7   2.0000     -10.255294      -279.0607
   8   2.0000     -10.254986      -279.0524
   9   2.0000     -10.250985      -278.9435
  10   2.0000     -10.250718      -278.9362
  11   2.0000      -9.539792      -259.5909
  12   2.0000      -7.243890      -197.1163
  13   2.0000      -7.242805      -197.0867
  14   2.0000      -7.241532      -197.0521
  15   2.0000      -2.105952       -57.3059
  16   2.0000      -1.263064       -34.3697
  17   2.0000      -1.261128       -34.3171
  18   2.0000      -1.251673       -34.0598
  19   2.0000      -0.913054       -24.8454
  20   2.0000      -0.902345       -24.5541
  21   2.0000      -0.782486       -21.2925
  22   2.0000      -0.737397       -20.0656
  23   2.0000      -0.736581       -20.0434
  24   2.0000      -0.735334       -20.0094
  25   2.0000      -0.732570       -19.9343
  26   2.0000      -0.573197       -15.5975
  27   2.0000      -0.568729       -15.4759
  28   2.0000      -0.565356       -15.3841
  29   2.0000      -0.564578       -15.3629
  30   2.0000      -0.558682       -15.2025
  31   2.0000      -0.552073       -15.0227
  32   2.0000      -0.441146       -12.0042
  33   2.0000      -0.424118       -11.5408
  34   2.0000      -0.423355       -11.5201
  35   2.0000      -0.421692       -11.4748
  36   2.0000      -0.421168       -11.4606
  37   2.0000      -0.406069       -11.0497
  38   2.0000      -0.405270       -11.0279
  39   2.0000      -0.404039       -10.9945
  40   2.0000      -0.401334       -10.9209
  41   2.0000      -0.401039       -10.9128
  42   2.0000      -0.336569        -9.1585
  43   2.0000      -0.320390        -8.7182
  44   2.0000      -0.311737        -8.4828
  45   2.0000      -0.291252        -7.9254
  46   2.0000      -0.285735        -7.7753
  47   2.0000      -0.284932        -7.7534
  48   2.0000      -0.268117        -7.2958
  49   2.0000      -0.257489        -7.0066
  50   0.0000      -0.062000        -1.6871
  51   0.0000      -0.034475        -0.9381
  52   0.0000      -0.024629        -0.6702
  53   0.0000      -0.019490        -0.5303
  54   0.0000      -0.017300        -0.4707

MULLIKEN ATOMIC CHARGES
-----------------------
   0 Zr:    0.932744
   1 C :   -0.610166
   2 C :   -0.656446
   3 C :   -0.607877
   4 H :    0.765587
   5 C :   -0.816361
   6 H :    0.660980
   7 C :   -0.848077
   8 H :    0.844975
   9 H :    0.652751
  10 C :   -0.603655
  11 C :   -0.647483
  12 C :   -0.858067
  13 H :    0.606722
  14 C :   -0.685418
  15 H :    0.720908
  16 C :   -0.725864
  17 H :    0.666759
  18 H :    0.661536
  19 Cl:   -0.550109
  20 H :   -0.419045
  21 H :    0.637960
  22 H :    0.877645
Sum of atomic charges:    0.0000000

LOEWDIN ATOMIC CHARGES
----------------------
   0 Zr:    0.383002
   1 C :   -0.069263
   2 C :   -0.060087
   3 C :   -0.076923
   4 H :    0.008557
   5 C :   -0.054568
   6 H :    0.008955
   7 C :   -0.063973
   8 H :    0.009407
   9 H :    0.009915
  10 C :   -0.059344
  11 C :   -0.067758
  12 C :   -0.056078
  13 H :    0.002767
  14 C :   -0.073383
  15 H :    0.008483
  16 C :   -0.068763
  17 H :    0.011305
  18 H :    0.007643
  19 Cl:    0.198355
  20 H :   -0.009136
  21 H :    0.002298
  22 H :    0.008588

  Mayer bond orders larger than 0.100000
B(  0-Zr,  1-C ) :   0.1568 B(  0-Zr,  2-C ) :   0.2465 B(  0-Zr,  3-C ) :   0.3060
B(  0-Zr,  5-C ) :   0.3631 B(  0-Zr,  7-C ) :   0.2504 B(  0-Zr, 10-C ) :   0.2099
B(  0-Zr, 11-C ) :   0.1413 B(  0-Zr, 12-C ) :   0.4048 B(  0-Zr, 14-C ) :   0.3306
B(  0-Zr, 16-C ) :   0.2385 B(  0-Zr, 19-Cl) :   0.7259 B(  0-Zr, 20-H ) :   0.7727
B(  1-C ,  2-C ) :   1.0693 B(  1-C ,  3-C ) :   0.9925 B(  1-C , 21-H ) :   0.7108
B(  2-C ,  4-H ) :   0.4652 B(  2-C ,  5-C ) :   1.2381 B(  3-C ,  6-H ) :   0.6775
B(  3-C ,  7-C ) :   0.8957 B(  5-C ,  7-C ) :   1.0681 B(  5-C ,  8-H ) :   0.3281
B(  7-C ,  9-H ) :   0.7380 B( 10-C , 11-C ) :   1.1254 B( 10-C , 12-C ) :   1.2234
B( 10-C , 22-H ) :   0.2869 B( 11-C , 13-H ) :   0.7434 B( 11-C , 14-C ) :   0.9744
B( 12-C , 15-H ) :   0.5090 B( 12-C , 16-C ) :   1.0302 B( 14-C , 16-C ) :   0.9415
B( 14-C , 17-H ) :   0.6650 B( 16-C , 18-H ) :   0.7164

Dispersion correction           -0.003348299
FINAL SINGLE POINT ENERGY      -894.883791494485

DIPOLE MOMENT
-------------
                                X             Y             Z
Electronic contribution:     -0.01718      13.12662     -12.59679
Nuclear contribution   :      0.01059     -14.41688      13.08524
                        -----------------------------------------
Total Dipole Moment    :     -0.00659      -1.29026       0.48845
                        -----------------------------------------
Magnitude (a.u.)       :      1.37964
Magnitude (Debye)      :      3.50676

Rotational constants in cm-1:     0.033538     0.025044     0.018059
Rotational constants in MHz :  1005.445647   750.792016   541.402542

                             ****ORCA TERMINATED NORMALLY****
TOTAL RUN TIME: 0 days 0 hours 5 minutes 9 seconds 950 msec
