                         Program Version 4.2.0 -  RELEASE  -
|  1> #
|  2> # TMB01_T1 M06-D3/Def2-TZVPPD
|  3> #
|  4> ! m06 d3zero def2-tzvppd def2/jk grid4 nofinalgrid
|  5>
|  6> *xyz 0 1
|  7> Zr       0.019829   -0.026802    0.120636
|  8> C        2.239874   -0.374444    1.245397
|  9> C        1.976783   -1.521588    0.474285
| 10> C        2.416443    0.711808    0.354001
| 11> H        1.819060   -2.516470    0.858019
| 12> C        2.001810   -1.148643   -0.895658
| 13> H        2.608112    1.737773    0.630719
| 14> C        2.298913    0.223349   -0.961356
| 15> H        1.861573   -1.806504   -1.739184
| 16> H        2.356666    0.814844   -1.859655
| 17> C       -1.057190   -2.235373    0.523484
| 18> C       -1.856346   -1.294393    1.201077
| 19> C       -1.167009   -1.987955   -0.868757
| 20> H       -2.005770   -1.236737    2.266001
| 21> C       -2.451652   -0.457501    0.227470
| 22> H       -0.689853   -2.550694   -1.656100
| 23> C       -2.043033   -0.903228   -1.046149
| 24> H       -3.108339    0.375352    0.426641
| 25> H       -2.305042   -0.449162   -1.987488
| 26> Cl      -0.345437    1.661478   -1.736503
| 27> C       -1.133945    2.698822    1.012771
| 28> C       -0.495222    2.377308    1.980322
| 29> H       -1.676629    3.004729    0.150271
| 30> H       -0.029188    0.104247    1.943645
| 31> H        0.041631    2.180985    2.876056
| 32> H        2.316195   -0.336400    2.319120
| 33> H       -0.485725   -3.023975    0.985751
| 34> *
| 35>
| 36> %maxcore 5000
| 37>
| 38> %pal
| 39> nprocs = 24
| 40> end
| 41>
| 42>
| 43>                          ****END OF INPUT****

CARTESIAN COORDINATES (ANGSTROEM)
---------------------------------
  Zr     0.019829   -0.026802    0.120636
  C      2.239874   -0.374444    1.245397
  C      1.976783   -1.521588    0.474285
  C      2.416443    0.711808    0.354001
  H      1.819060   -2.516470    0.858019
  C      2.001810   -1.148643   -0.895658
  H      2.608112    1.737773    0.630719
  C      2.298913    0.223349   -0.961356
  H      1.861573   -1.806504   -1.739184
  H      2.356666    0.814844   -1.859655
  C     -1.057190   -2.235373    0.523484
  C     -1.856346   -1.294393    1.201077
  C     -1.167009   -1.987955   -0.868757
  H     -2.005770   -1.236737    2.266001
  C     -2.451652   -0.457501    0.227470
  H     -0.689853   -2.550694   -1.656100
  C     -2.043033   -0.903228   -1.046149
  H     -3.108339    0.375352    0.426641
  H     -2.305042   -0.449162   -1.987488
  Cl    -0.345437    1.661478   -1.736503
  C     -1.133945    2.698822    1.012771
  C     -0.495222    2.377308    1.980322
  H     -1.676629    3.004729    0.150271
  H     -0.029188    0.104247    1.943645
  H      0.041631    2.180985    2.876056
  H      2.316195   -0.336400    2.319120
  H     -0.485725   -3.023975    0.985751

 Total Charge           Charge          ....    0
 Multiplicity           Mult            ....    1
 Number of Electrons    NEL             ....  114
 Basis Dimension        Dim             ....  772

ORBITAL ENERGIES
----------------

  NO   OCC          E(Eh)            E(eV)
   0   2.0000    -101.638998     -2765.7377
   1   2.0000     -10.255913      -279.0776
   2   2.0000     -10.255511      -279.0666
   3   2.0000     -10.254384      -279.0360
   4   2.0000     -10.252102      -278.9739
   5   2.0000     -10.251588      -278.9599
   6   2.0000     -10.251562      -278.9592
   7   2.0000     -10.250899      -278.9411
   8   2.0000     -10.250626      -278.9337
   9   2.0000     -10.250359      -278.9264
  10   2.0000     -10.250127      -278.9201
  11   2.0000     -10.247554      -278.8501
  12   2.0000     -10.247478      -278.8481
  13   2.0000      -9.516059      -258.9451
  14   2.0000      -7.220701      -196.4853
  15   2.0000      -7.218272      -196.4192
  16   2.0000      -7.218024      -196.4124
  17   2.0000      -2.101582       -57.1869
  18   2.0000      -1.259682       -34.2777
  19   2.0000      -1.256074       -34.1795
  20   2.0000      -1.246325       -33.9142
  21   2.0000      -0.908449       -24.7202
  22   2.0000      -0.898010       -24.4361
  23   2.0000      -0.774908       -21.0863
  24   2.0000      -0.761221       -20.7139
  25   2.0000      -0.733300       -19.9541
  26   2.0000      -0.732335       -19.9279
  27   2.0000      -0.731160       -19.8959
  28   2.0000      -0.727327       -19.7916
  29   2.0000      -0.583674       -15.8826
  30   2.0000      -0.569671       -15.5015
  31   2.0000      -0.564985       -15.3740
  32   2.0000      -0.560679       -15.2569
  33   2.0000      -0.559810       -15.2332
  34   2.0000      -0.554815       -15.0973
  35   2.0000      -0.547364       -14.8945
  36   2.0000      -0.511299       -13.9132
  37   2.0000      -0.437559       -11.9066
  38   2.0000      -0.420620       -11.4457
  39   2.0000      -0.419885       -11.4257
  40   2.0000      -0.418193       -11.3796
  41   2.0000      -0.416236       -11.3263
  42   2.0000      -0.402643       -10.9565
  43   2.0000      -0.400021       -10.8851
  44   2.0000      -0.399570       -10.8728
  45   2.0000      -0.397696       -10.8218
  46   2.0000      -0.396101       -10.7784
  47   2.0000      -0.346424        -9.4267
  48   2.0000      -0.328656        -8.9432
  49   2.0000      -0.314323        -8.5532
  50   2.0000      -0.305686        -8.3181
  51   2.0000      -0.292922        -7.9708
  52   2.0000      -0.286265        -7.7897
  53   2.0000      -0.284311        -7.7365
  54   2.0000      -0.272795        -7.4231
  55   2.0000      -0.249514        -6.7896
  56   2.0000      -0.240432        -6.5425
  57   0.0000      -0.040320        -1.0972
  58   0.0000      -0.034543        -0.9400
  59   0.0000      -0.025744        -0.7005
  60   0.0000      -0.021939        -0.5970
  61   0.0000      -0.017509        -0.4764

MULLIKEN ATOMIC CHARGES
-----------------------
   0 Zr:    0.705325
   1 C :   -0.686357
   2 C :   -0.783184
   3 C :   -0.790723
   4 H :    0.953172
   5 C :   -0.807693
   6 H :    0.816208
   7 C :   -0.747455
   8 H :    0.757046
   9 H :    0.753594
  10 C :   -0.808635
  11 C :   -0.853132
  12 C :   -0.743121
  13 H :    0.728056
  14 C :   -0.693813
  15 H :    0.842104
  16 C :   -0.773294
  17 H :    0.896763
  18 H :    0.702109
  19 Cl:   -0.613129
  20 C :   -1.093276
  21 C :   -0.805153
  22 H :    0.897283
  23 H :   -0.400956
  24 H :    0.944344
  25 H :    0.740631
  26 H :    0.863287
Sum of atomic charges:   -0.0000000

LOEWDIN ATOMIC CHARGES
----------------------
   0 Zr:    0.472066
   1 C :   -0.062334
   2 C :   -0.057854
   3 C :   -0.054722
   4 H :    0.006573
   5 C :   -0.048694
   6 H :    0.013433
   7 C :   -0.082893
   8 H :    0.011122
   9 H :   -0.009521
  10 C :   -0.059009
  11 C :   -0.058590
  12 C :   -0.046887
  13 H :    0.004696
  14 C :   -0.056973
  15 H :    0.011731
  16 C :   -0.076000
  17 H :    0.010095
  18 H :   -0.006189
  19 Cl:    0.153208
  20 C :    0.040383
  21 C :    0.065623
  22 H :   -0.102684
  23 H :   -0.003367
  24 H :   -0.073223
  25 H :    0.003459
  26 H :    0.006551

  Mayer bond orders larger than 0.100000
B(  0-Zr,  1-C ) :   0.1471 B(  0-Zr,  2-C ) :   0.3169 B(  0-Zr,  3-C ) :   0.3961
B(  0-Zr,  5-C ) :   0.4152 B(  0-Zr,  7-C ) :   0.2139 B(  0-Zr, 10-C ) :   0.4201
B(  0-Zr, 11-C ) :   0.1627 B(  0-Zr, 12-C ) :   0.3493 B(  0-Zr, 14-C ) :   0.3781
B(  0-Zr, 19-Cl) :   0.5507 B(  0-Zr, 20-C ) :   0.2309 B(  0-Zr, 23-H ) :   0.7745
B(  1-C ,  2-C ) :   1.2316 B(  1-C ,  3-C ) :   1.0207 B(  1-C ,  4-H ) :  -0.1007
B(  1-C ,  5-C ) :   0.1189 B(  1-C , 23-H ) :  -0.1756 B(  1-C , 25-H ) :   0.5619
B(  2-C ,  4-H ) :   0.1799 B(  2-C ,  5-C ) :   1.2742 B(  3-C ,  6-H ) :   0.4499
B(  3-C ,  7-C ) :   1.0190 B(  3-C , 20-C ) :  -0.1015 B(  5-C ,  7-C ) :   1.0091
B(  5-C ,  8-H ) :   0.4884 B(  7-C ,  9-H ) :   0.5411 B( 10-C , 11-C ) :   1.2753
B( 10-C , 12-C ) :   1.2222 B( 10-C , 26-H ) :   0.3094 B( 11-C , 13-H ) :   0.5643
B( 11-C , 14-C ) :   1.1708 B( 11-C , 23-H ) :  -0.1006 B( 12-C , 15-H ) :   0.3468
B( 12-C , 16-C ) :   1.0935 B( 14-C , 16-C ) :   1.0820 B( 14-C , 17-H ) :   0.3225
B( 16-C , 18-H ) :   0.6101 B( 19-Cl, 20-C ) :   0.1068 B( 20-C , 21-C ) :   5.3906
B( 20-C , 22-H ) :  -0.2304 B( 20-C , 23-H ) :   0.1479 B( 20-C , 24-H ) :   0.1675
B( 21-C , 22-H ) :   0.3481 B( 21-C , 23-H ) :  -0.1489 B( 21-C , 24-H ) :  -0.1058
B( 22-H , 24-H ) :   0.1125

Dispersion correction           -0.004923824
FINAL SINGLE POINT ENERGY      -972.178788086787

DIPOLE MOMENT
-------------
                                X             Y             Z
Electronic contribution:      0.48417       2.13168       2.49483
Nuclear contribution   :     -0.31433      -2.93943      -1.59819
                        -----------------------------------------
Total Dipole Moment    :      0.16984      -0.80775       0.89664
                        -----------------------------------------
Magnitude (a.u.)       :      1.21871
Magnitude (Debye)      :      3.09773

Rotational constants in cm-1:     0.021527     0.019953     0.016159
Rotational constants in MHz :   645.375909   598.178243   484.447118

                             ****ORCA TERMINATED NORMALLY****
TOTAL RUN TIME: 0 days 0 hours 8 minutes 41 seconds 423 msec
