                         Program Version 4.2.0 -  RELEASE  -
|  1> #
|  2> # TMB09_T1 M06-D3/Def2-TZVPPD
|  3> #
|  4> ! m06 d3zero def2-tzvppd def2/jk grid4 nofinalgrid
|  5>
|  6> *xyz 0 1
|  7> Mo       0.144293   -0.018278    0.187956
|  8> C       -1.882744   -1.070987   -0.485243
|  9> C       -1.076439    2.809087   -0.488683
| 10> H       -1.056313    3.572787    0.310053
| 11> H       -2.117393    2.730299   -0.852689
| 12> H       -0.453643    3.172151   -1.326804
| 13> C        1.996084   -2.290843   -0.946924
| 14> C        2.556730    1.794509   -0.039409
| 15> N       -0.610025    1.553803    0.004719
| 16> O        1.936938    0.565567   -0.322724
| 17> O        0.833025   -1.766355   -0.360705
| 18> H        1.780871   -2.689531   -1.957376
| 19> H        2.380311   -3.126092   -0.331250
| 20> H        2.779790   -1.516765   -1.025980
| 21> H        3.470410    1.892833   -0.654307
| 22> H        2.854397    1.863620    1.026056
| 23> H        1.897937    2.657406   -0.259961
| 24> C       -0.134457   -0.284271    2.087106
| 25> C       -1.864166   -1.358035    0.884748
| 26> H        0.299474   -1.167843    2.578202
| 27> H       -0.661177    0.399181    2.762773
| 28> H       -1.449974   -2.303708    1.234049
| 29> H       -2.567349   -0.858578    1.555883
| 30> C       -2.930318   -0.174171   -1.105185
| 31> H       -2.557155    0.344677   -2.001613
| 32> H       -3.799822   -0.779414   -1.421129
| 33> H       -3.293476    0.582538   -0.393193
| 34> H       -1.444854   -1.827941   -1.140932
| 35> *
| 36>
| 37> %maxcore 5000
| 38>
| 39> %pal
| 40> nprocs = 24
| 41> end
| 42>
| 43>
| 44>                          ****END OF INPUT****

CARTESIAN COORDINATES (ANGSTROEM)
---------------------------------
  Mo     0.144293   -0.018278    0.187956
  C     -1.882744   -1.070987   -0.485243
  C     -1.076439    2.809087   -0.488683
  H     -1.056313    3.572787    0.310053
  H     -2.117393    2.730299   -0.852689
  H     -0.453643    3.172151   -1.326804
  C      1.996084   -2.290843   -0.946924
  C      2.556730    1.794509   -0.039409
  N     -0.610025    1.553803    0.004719
  O      1.936938    0.565567   -0.322724
  O      0.833025   -1.766355   -0.360705
  H      1.780871   -2.689531   -1.957376
  H      2.380311   -3.126092   -0.331250
  H      2.779790   -1.516765   -1.025980
  H      3.470410    1.892833   -0.654307
  H      2.854397    1.863620    1.026056
  H      1.897937    2.657406   -0.259961
  C     -0.134457   -0.284271    2.087106
  C     -1.864166   -1.358035    0.884748
  H      0.299474   -1.167843    2.578202
  H     -0.661177    0.399181    2.762773
  H     -1.449974   -2.303708    1.234049
  H     -2.567349   -0.858578    1.555883
  C     -2.930318   -0.174171   -1.105185
  H     -2.557155    0.344677   -2.001613
  H     -3.799822   -0.779414   -1.421129
  H     -3.293476    0.582538   -0.393193
  H     -1.444854   -1.827941   -1.140932

 Total Charge           Charge          ....    0
 Multiplicity           Mult            ....    1
 Number of Electrons    NEL             ....   96
 Basis Dimension        Dim             ....  721

ORBITAL ENERGIES
----------------

  NO   OCC          E(Eh)            E(eV)
   0   2.0000     -19.174894      -521.7754
   1   2.0000     -19.174760      -521.7718
   2   2.0000     -14.385968      -391.4621
   3   2.0000     -10.273353      -279.5522
   4   2.0000     -10.269787      -279.4551
   5   2.0000     -10.259774      -279.1826
   6   2.0000     -10.254044      -279.0267
   7   2.0000     -10.254040      -279.0266
   8   2.0000     -10.253533      -279.0128
   9   2.0000     -10.240111      -278.6476
  10   2.0000      -2.598914       -70.7200
  11   2.0000      -1.621749       -44.1300
  12   2.0000      -1.609994       -43.8102
  13   2.0000      -1.602499       -43.6062
  14   2.0000      -0.981126       -26.6978
  15   2.0000      -0.974011       -26.5042
  16   2.0000      -0.852240       -23.1906
  17   2.0000      -0.810462       -22.0538
  18   2.0000      -0.710994       -19.3471
  19   2.0000      -0.662794       -18.0355
  20   2.0000      -0.656838       -17.8735
  21   2.0000      -0.650851       -17.7106
  22   2.0000      -0.633846       -17.2478
  23   2.0000      -0.580566       -15.7980
  24   2.0000      -0.494322       -13.4512
  25   2.0000      -0.468269       -12.7422
  26   2.0000      -0.457473       -12.4485
  27   2.0000      -0.455707       -12.4004
  28   2.0000      -0.454087       -12.3563
  29   2.0000      -0.447734       -12.1835
  30   2.0000      -0.439252       -11.9527
  31   2.0000      -0.435490       -11.8503
  32   2.0000      -0.428553       -11.6615
  33   2.0000      -0.423931       -11.5357
  34   2.0000      -0.422233       -11.4895
  35   2.0000      -0.406611       -11.0644
  36   2.0000      -0.401952       -10.9377
  37   2.0000      -0.391825       -10.6621
  38   2.0000      -0.369115       -10.0441
  39   2.0000      -0.357649        -9.7321
  40   2.0000      -0.328878        -8.9492
  41   2.0000      -0.306377        -8.3370
  42   2.0000      -0.299122        -8.1395
  43   2.0000      -0.280041        -7.6203
  44   2.0000      -0.275547        -7.4980
  45   2.0000      -0.263934        -7.1820
  46   2.0000      -0.254832        -6.9343
  47   2.0000      -0.230825        -6.2811
  48   0.0000      -0.046709        -1.2710
  49   0.0000      -0.039773        -1.0823
  50   0.0000      -0.031579        -0.8593
  51   0.0000      -0.027056        -0.7362
  52   0.0000      -0.019308        -0.5254

MULLIKEN ATOMIC CHARGES
-----------------------
   0 Mo:   -0.091285
   1 C :   -0.102398
   2 C :   -1.393504
   3 H :    0.504094
   4 H :    0.557242
   5 H :    0.462816
   6 C :   -1.268606
   7 C :   -1.180364
   8 N :   -0.164744
   9 O :   -0.195883
  10 O :   -0.087004
  11 H :    0.430682
  12 H :    0.430925
  13 H :    0.416919
  14 H :    0.373274
  15 H :    0.454069
  16 H :    0.334372
  17 C :   -1.187077
  18 C :   -0.947955
  19 H :    0.646955
  20 H :    0.632234
  21 H :    0.773141
  22 H :    0.590459
  23 C :   -2.283292
  24 H :    0.398820
  25 H :    0.675122
  26 H :    0.454596
  27 H :    0.766393
Sum of atomic charges:   -0.0000000

LOEWDIN ATOMIC CHARGES
----------------------
   0 Mo:    1.135484
   1 C :   -0.203323
   2 C :    0.011813
   3 H :   -0.003446
   4 H :   -0.016208
   5 H :   -0.004265
   6 C :    0.002487
   7 C :   -0.019279
   8 N :   -0.120171
   9 O :   -0.351653
  10 O :   -0.342104
  11 H :   -0.003246
  12 H :   -0.002304
  13 H :   -0.018560
  14 H :   -0.003355
  15 H :   -0.004090
  16 H :   -0.021900
  17 C :    0.064580
  18 C :    0.061911
  19 H :   -0.083682
  20 H :   -0.089577
  21 H :   -0.016615
  22 H :   -0.008897
  23 C :    0.081604
  24 H :   -0.013049
  25 H :   -0.005060
  26 H :   -0.015202
  27 H :   -0.011893

  Mayer bond orders larger than 0.100000
B(  0-Mo,  1-C ) :   0.5939 B(  0-Mo,  8-N ) :   1.8723 B(  0-Mo,  9-O ) :   1.0788
B(  0-Mo, 10-O ) :   1.0505 B(  0-Mo, 17-C ) :   1.6526 B(  0-Mo, 18-C ) :   0.1843
B(  0-Mo, 23-C ) :   0.2749 B(  1-C , 18-C ) :   0.8726 B(  1-C , 23-C ) :  -0.1125
B(  1-C , 26-H ) :  -0.1640 B(  1-C , 27-H ) :   0.3876 B(  2-C ,  3-H ) :   0.8068
B(  2-C ,  4-H ) :   0.6352 B(  2-C ,  5-H ) :   0.8480 B(  2-C ,  8-N ) :   0.1993
B(  6-C , 10-O ) :   0.4918 B(  6-C , 11-H ) :   0.8691 B(  6-C , 12-H ) :   0.8599
B(  6-C , 13-H ) :   0.7779 B(  7-C ,  9-O ) :   0.5517 B(  7-C , 14-H ) :   0.9671
B(  7-C , 15-H ) :   0.8325 B(  7-C , 16-H ) :   0.8218 B(  8-N , 10-O ) :   0.1067
B( 10-O , 18-C ) :  -0.1358 B( 17-C , 19-H ) :   0.7502 B( 17-C , 20-H ) :   0.8023
B( 18-C , 21-H ) :   0.4407 B( 18-C , 22-H ) :   0.8535 B( 23-C , 24-H ) :   0.9949
B( 23-C , 25-H ) :   0.5527 B( 23-C , 26-H ) :   0.9653

Dispersion correction           -0.004044874
FINAL SINGLE POINT ENERGY      -550.235951579704

DIPOLE MOMENT
-------------
                                X             Y             Z
Electronic contribution:     10.71114      -2.94904      13.26838
Nuclear contribution   :    -11.80214       3.30573     -13.02417
                        -----------------------------------------
Total Dipole Moment    :     -1.09099       0.35669       0.24421
                        -----------------------------------------
Magnitude (a.u.)       :      1.17351
Magnitude (Debye)      :      2.98283

Rotational constants in cm-1:     0.031577     0.026703     0.018834
Rotational constants in MHz :   946.666634   800.534327   564.625423

                             ****ORCA TERMINATED NORMALLY****
TOTAL RUN TIME: 0 days 0 hours 4 minutes 35 seconds 521 msec
