                         Program Version 4.2.0 -  RELEASE  -
|  1> #
|  2> # TMB01_R2 M06-D3/Def2-TZVPPD
|  3> #
|  4> ! m06 d3zero def2-tzvppd def2/jk grid4 nofinalgrid
|  5>
|  6> *xyz 0 1
|  7> C        0.000000    0.000000    0.598253
|  8> C        0.000000    0.000000   -0.598253
|  9> H        0.000000    0.000000    1.662161
| 10> H        0.000000    0.000000   -1.662161
| 11> *
| 12>
| 13> %maxcore 5000
| 14>
| 15> %pal
| 16> nprocs = 24
| 17> end
| 18>
| 19>
| 20>                          ****END OF INPUT****

CARTESIAN COORDINATES (ANGSTROEM)
---------------------------------
  C      0.000000    0.000000    0.598253
  C      0.000000    0.000000   -0.598253
  H      0.000000    0.000000    1.662161
  H      0.000000    0.000000   -1.662161

 Total Charge           Charge          ....    0
 Multiplicity           Mult            ....    1
 Number of Electrons    NEL             ....   14
 Basis Dimension        Dim             ....  108

ORBITAL ENERGIES
----------------

  NO   OCC          E(Eh)            E(eV)
   0   2.0000     -10.241199      -278.6772
   1   2.0000     -10.238665      -278.6082
   2   2.0000      -0.757785       -20.6204
   3   2.0000      -0.575486       -15.6598
   4   2.0000      -0.503644       -13.7049
   5   2.0000      -0.310621        -8.4524
   6   2.0000      -0.310621        -8.4524
   7   0.0000      -0.013359        -0.3635
   8   0.0000      -0.003645        -0.0992
   9   0.0000       0.022156         0.6029
  10   0.0000       0.022156         0.6029
  11   0.0000       0.051164         1.3922

MULLIKEN ATOMIC CHARGES
-----------------------
   0 C :   -0.771632
   1 C :   -0.771411
   2 H :    0.771512
   3 H :    0.771531
Sum of atomic charges:    0.0000000

LOEWDIN ATOMIC CHARGES
----------------------
   0 C :    0.090217
   1 C :    0.090217
   2 H :   -0.090217
   3 H :   -0.090217

  Mayer bond orders larger than 0.100000
B(  0-C ,  1-C ) :   4.7694 B(  0-C ,  3-H ) :   0.2425 B(  1-C ,  2-H ) :   0.2426
B(  2-H ,  3-H ) :   0.1159

Dispersion correction           -0.000030487
FINAL SINGLE POINT ENERGY       -77.299274735610

DIPOLE MOMENT
-------------
                                X             Y             Z
Electronic contribution:     -0.00000      -0.00000      -0.00000
Nuclear contribution   :      0.00000       0.00000       0.00000
                        -----------------------------------------
Total Dipole Moment    :     -0.00000      -0.00000      -0.00000
                        -----------------------------------------
Magnitude (a.u.)       :      0.00000
Magnitude (Debye)      :      0.00000

Rotational constants in cm-1:     0.000000     1.189890     1.189890
Rotational constants in MHz :     0.000000 35672.008035 35672.008035

                             ****ORCA TERMINATED NORMALLY****
TOTAL RUN TIME: 0 days 0 hours 0 minutes 3 seconds 99 msec
