                         Program Version 4.2.0 -  RELEASE  -
|  1> #
|  2> # TMB06_T1 M06-D3/Def2-TZVPPD
|  3> #
|  4> ! m06 d3zero def2-tzvppd def2/jk grid4 nofinalgrid
|  5>
|  6> *xyz -2 1
|  7> C       -5.371545   -2.136160    0.336278
|  8> C       -4.697063   -0.763740    0.262018
|  9> O       -4.978822    0.003309   -0.707502
| 10> O       -3.902613   -0.505987    1.212120
| 11> C        2.635057   -0.678655    2.396830
| 12> S        2.063323    1.004526    1.938677
| 13> C        2.314937   -2.581636   -1.299530
| 14> S        0.864820   -2.286095   -0.358137
| 15> C        3.240953   -1.614445   -1.507242
| 16> S        2.972432   -0.000985   -0.910324
| 17> C       -0.891125    2.751712   -1.395439
| 18> S        0.528832    2.543841   -0.360303
| 19> C       -1.489329    1.702419   -2.015371
| 20> S       -0.828634    0.070077   -1.896647
| 21> W        0.627788    0.033115    0.107608
| 22> O       -2.320739    1.386691    1.151938
| 23> C       -0.689027   -0.837880    1.297595
| 24> C       -0.745952    0.472117    1.605961
| 25> H       -4.850130   -2.819358   -0.346804
| 26> H       -5.250819   -2.525653    1.350280
| 27> H        1.778524   -1.298220    2.681124
| 28> H        3.117621   -1.144410    1.536216
| 29> H       -3.029141    0.618126    1.100277
| 30> H       -2.171098    1.699602    0.245945
| 31> H       -1.140104   -1.782909    1.572954
| 32> H       -0.640990    1.084034    2.487860
| 33> H       -1.256518    3.767648   -1.529996
| 34> H       -2.404891    1.822493   -2.590760
| 35> H        3.371580   -0.608085    3.204035
| 36> H        2.423780   -3.583247   -1.710229
| 37> H        4.191166   -1.850203   -1.981855
| 38> H       -6.431678   -2.086675    0.066661
| 39> *
| 40>
| 41> %maxcore 5000
| 42>
| 43> %pal
| 44> nprocs = 24
| 45> end
| 46>
| 47>
| 48>                          ****END OF INPUT****

CARTESIAN COORDINATES (ANGSTROEM)
---------------------------------
  C     -5.371545   -2.136160    0.336278
  C     -4.697063   -0.763740    0.262018
  O     -4.978822    0.003309   -0.707502
  O     -3.902613   -0.505987    1.212120
  C      2.635057   -0.678655    2.396830
  S      2.063323    1.004526    1.938677
  C      2.314937   -2.581636   -1.299530
  S      0.864820   -2.286095   -0.358137
  C      3.240953   -1.614445   -1.507242
  S      2.972432   -0.000985   -0.910324
  C     -0.891125    2.751712   -1.395439
  S      0.528832    2.543841   -0.360303
  C     -1.489329    1.702419   -2.015371
  S     -0.828634    0.070077   -1.896647
  W      0.627788    0.033115    0.107608
  O     -2.320739    1.386691    1.151938
  C     -0.689027   -0.837880    1.297595
  C     -0.745952    0.472117    1.605961
  H     -4.850130   -2.819358   -0.346804
  H     -5.250819   -2.525653    1.350280
  H      1.778524   -1.298220    2.681124
  H      3.117621   -1.144410    1.536216
  H     -3.029141    0.618126    1.100277
  H     -2.171098    1.699602    0.245945
  H     -1.140104   -1.782909    1.572954
  H     -0.640990    1.084034    2.487860
  H     -1.256518    3.767648   -1.529996
  H     -2.404891    1.822493   -2.590760
  H      3.371580   -0.608085    3.204035
  H      2.423780   -3.583247   -1.710229
  H      4.191166   -1.850203   -1.981855
  H     -6.431678   -2.086675    0.066661

 Total Charge           Charge          ....   -2
 Multiplicity           Mult            ....    1
 Number of Electrons    NEL             ....  188
 Basis Dimension        Dim             .... 1005

ORBITAL ENERGIES
----------------

  NO   OCC          E(Eh)            E(eV)
   0   2.0000     -88.799823     -2416.3660
   1   2.0000     -88.782990     -2415.9080
   2   2.0000     -88.776921     -2415.7428
   3   2.0000     -88.768487     -2415.5133
   4   2.0000     -88.765420     -2415.4299
   5   2.0000     -18.969983      -516.1995
   6   2.0000     -18.931521      -515.1529
   7   2.0000     -18.915911      -514.7281
   8   2.0000     -10.100107      -274.8379
   9   2.0000     -10.048967      -273.4463
  10   2.0000     -10.040001      -273.2023
  11   2.0000     -10.037051      -273.1221
  12   2.0000     -10.034268      -273.0463
  13   2.0000     -10.032461      -272.9971
  14   2.0000     -10.028210      -272.8815
  15   2.0000     -10.018328      -272.6126
  16   2.0000      -9.998539      -272.0741
  17   2.0000      -7.817981      -212.7381
  18   2.0000      -7.801563      -212.2913
  19   2.0000      -7.795202      -212.1182
  20   2.0000      -7.786904      -211.8924
  21   2.0000      -7.784230      -211.8197
  22   2.0000      -5.736530      -156.0989
  23   2.0000      -5.731956      -155.9745
  24   2.0000      -5.730806      -155.9432
  25   2.0000      -5.720383      -155.6595
  26   2.0000      -5.715320      -155.5218
  27   2.0000      -5.714195      -155.4912
  28   2.0000      -5.714110      -155.4888
  29   2.0000      -5.709665      -155.3679
  30   2.0000      -5.707115      -155.2985
  31   2.0000      -5.706003      -155.2682
  32   2.0000      -5.703718      -155.2061
  33   2.0000      -5.701176      -155.1369
  34   2.0000      -5.699394      -155.0884
  35   2.0000      -5.698786      -155.0718
  36   2.0000      -5.694706      -154.9608
  37   2.0000      -2.732824       -74.3639
  38   2.0000      -1.404925       -38.2300
  39   2.0000      -1.400814       -38.1181
  40   2.0000      -1.396645       -38.0046
  41   2.0000      -0.820599       -22.3296
  42   2.0000      -0.787102       -21.4181
  43   2.0000      -0.729353       -19.8467
  44   2.0000      -0.607972       -16.5438
  45   2.0000      -0.586750       -15.9663
  46   2.0000      -0.544978       -14.8296
  47   2.0000      -0.531447       -14.4614
  48   2.0000      -0.517991       -14.0953
  49   2.0000      -0.513379       -13.9698
  50   2.0000      -0.492224       -13.3941
  51   2.0000      -0.446326       -12.1451
  52   2.0000      -0.427123       -11.6226
  53   2.0000      -0.398896       -10.8545
  54   2.0000      -0.341607        -9.2956
  55   2.0000      -0.328810        -8.9474
  56   2.0000      -0.323027        -8.7900
  57   2.0000      -0.307524        -8.3682
  58   2.0000      -0.275755        -7.5037
  59   2.0000      -0.272273        -7.4089
  60   2.0000      -0.257706        -7.0125
  61   2.0000      -0.253401        -6.8954
  62   2.0000      -0.232092        -6.3156
  63   2.0000      -0.227534        -6.1915
  64   2.0000      -0.223364        -6.0781
  65   2.0000      -0.216674        -5.8960
  66   2.0000      -0.215014        -5.8508
  67   2.0000      -0.202290        -5.5046
  68   2.0000      -0.183798        -5.0014
  69   2.0000      -0.169876        -4.6225
  70   2.0000      -0.167901        -4.5688
  71   2.0000      -0.156490        -4.2583
  72   2.0000      -0.145117        -3.9488
  73   2.0000      -0.142632        -3.8812
  74   2.0000      -0.136633        -3.7180
  75   2.0000      -0.130278        -3.5450
  76   2.0000      -0.118024        -3.2116
  77   2.0000      -0.109730        -2.9859
  78   2.0000      -0.099706        -2.7131
  79   2.0000      -0.083348        -2.2680
  80   2.0000      -0.075578        -2.0566
  81   2.0000      -0.071871        -1.9557
  82   2.0000      -0.054217        -1.4753
  83   2.0000      -0.053163        -1.4466
  84   2.0000      -0.043062        -1.1718
  85   2.0000      -0.041358        -1.1254
  86   2.0000      -0.033758        -0.9186
  87   2.0000      -0.032339        -0.8800
  88   2.0000      -0.026080        -0.7097
  89   2.0000      -0.018456        -0.5022
  90   2.0000      -0.008414        -0.2290
  91   2.0000      -0.002243        -0.0610
  92   2.0000       0.016269         0.4427
  93   2.0000       0.036786         1.0010
  94   0.0000       0.127981         3.4825
  95   0.0000       0.136615         3.7175
  96   0.0000       0.139085         3.7847
  97   0.0000       0.142500         3.8776
  98   0.0000       0.145600         3.9620

MULLIKEN ATOMIC CHARGES
-----------------------
   0 C :   -2.048313
   1 C :    0.848326
   2 O :   -0.655181
   3 O :   -0.604267
   4 C :   -0.930173
   5 S :   -0.483979
   6 C :   -0.273032
   7 S :   -0.341868
   8 C :   -0.375768
   9 S :   -0.366358
  10 C :   -0.398211
  11 S :   -0.490426
  12 C :   -0.463896
  13 S :   -0.426089
  14 W :    0.652267
  15 O :   -0.434844
  16 C :   -0.687450
  17 C :   -0.406602
  18 H :    0.481242
  19 H :    0.535983
  20 H :    0.259258
  21 H :    0.218860
  22 H :    0.254137
  23 H :    0.324906
  24 H :    0.441314
  25 H :    0.589845
  26 H :    0.463843
  27 H :    0.446820
  28 H :    0.588285
  29 H :    0.313175
  30 H :    0.364727
  31 H :    0.603467
Sum of atomic charges:   -2.0000000

LOEWDIN ATOMIC CHARGES
----------------------
   0 C :    0.154809
   1 C :   -0.626799
   2 O :   -0.083086
   3 O :    0.021848
   4 C :   -0.326363
   5 S :    0.411511
   6 C :   -0.570629
   7 S :    0.613202
   8 C :   -0.601318
   9 S :    0.501703
  10 C :   -0.604312
  11 S :    0.483700
  12 C :   -0.585149
  13 S :    0.542965
  14 W :    0.130052
  15 O :    0.323519
  16 C :   -0.238879
  17 C :   -0.239472
  18 H :   -0.017754
  19 H :   -0.030386
  20 H :   -0.088658
  21 H :   -0.126804
  22 H :   -0.277628
  23 H :   -0.228126
  24 H :   -0.064375
  25 H :   -0.051268
  26 H :   -0.075527
  27 H :   -0.065036
  28 H :   -0.086932
  29 H :   -0.086948
  30 H :   -0.079663
  31 H :   -0.028199

  Mayer bond orders larger than 0.100000
B(  0-C ,  1-C ) :   0.2772 B(  0-C ,  2-O ) :   0.1134 B(  0-C ,  3-O ) :   0.1018
B(  0-C , 18-H ) :   0.8627 B(  0-C , 19-H ) :   0.7859 B(  0-C , 31-H ) :   0.7663
B(  1-C ,  2-O ) :   1.6607 B(  1-C ,  3-O ) :   1.5154 B(  3-O , 22-H ) :   0.3820
B(  4-C ,  5-S ) :   0.6980 B(  4-C , 20-H ) :   1.0347 B(  4-C , 21-H ) :   0.8809
B(  4-C , 28-H ) :   0.7087 B(  5-S , 14-W ) :   0.8665 B(  6-C ,  7-S ) :   0.7671
B(  6-C ,  8-C ) :   1.0859 B(  6-C , 29-H ) :   1.1045 B(  6-C , 30-H ) :  -0.1358
B(  7-S , 14-W ) :   1.0405 B(  8-C ,  9-S ) :   0.9725 B(  8-C , 29-H ) :  -0.1967
B(  8-C , 30-H ) :   1.0143 B(  9-S , 14-W ) :   0.9588 B( 10-C , 11-S ) :   1.0112
B( 10-C , 12-C ) :   0.9908 B( 10-C , 26-H ) :   0.9204 B( 10-C , 27-H ) :  -0.1567
B( 11-S , 14-W ) :   0.8378 B( 12-C , 13-S ) :   0.9752 B( 12-C , 26-H ) :  -0.1471
B( 12-C , 27-H ) :   0.9746 B( 13-S , 14-W ) :   1.0134 B( 14-W , 16-C ) :   1.1162
B( 14-W , 17-C ) :   0.7073 B( 15-O , 17-C ) :   0.1751 B( 15-O , 22-H ) :   0.5799
B( 15-O , 23-H ) :   0.9119 B( 16-C , 17-C ) :   1.1025 B( 16-C , 24-H ) :   0.9351
B( 17-C , 24-H ) :  -0.1094 B( 17-C , 25-H ) :   0.8436

Dispersion correction           -0.007077598
FINAL SINGLE POINT ENERGY     -2635.073703993636

DIPOLE MOMENT
-------------
                                X             Y             Z
Electronic contribution:     97.93932       9.38257      10.83906
Nuclear contribution   :    -95.08812     -10.49452     -10.64317
                        -----------------------------------------
Total Dipole Moment    :      2.85120      -1.11195       0.19589
                        -----------------------------------------
Magnitude (a.u.)       :      3.06662
Magnitude (Debye)      :      7.79472

Rotational constants in cm-1:     0.011727     0.005648     0.005281
Rotational constants in MHz :   351.552196   169.313101   158.324155

                             ****ORCA TERMINATED NORMALLY****
TOTAL RUN TIME: 0 days 0 hours 11 minutes 32 seconds 635 msec
