                         Program Version 4.2.0 -  RELEASE  -
|  1> #
|  2> # TMB06_C1 M06-D3/Def2-TZVPPD
|  3> #
|  4> ! m06 d3zero def2-tzvppd def2/jk grid4 nofinalgrid
|  5>
|  6> *xyz -2 1
|  7> C       -4.922177    0.231539    2.107663
|  8> C       -4.446966   -0.260950    0.727306
|  9> O       -4.786048   -1.445661    0.381045
| 10> O       -3.774664    0.534657    0.034272
| 11> C        2.853834    2.539483    0.111094
| 12> S        1.699014    2.002949   -1.213407
| 13> C        2.621388   -0.654255    2.558361
| 14> S        1.079319    0.109893    2.243750
| 15> C        3.475179   -0.966107    1.545638
| 16> S        3.017258   -0.732048   -0.112289
| 17> C       -0.719852   -2.060810   -2.434513
| 18> S        0.476784   -0.759924   -2.482057
| 19> C       -1.165423   -2.576996   -1.263023
| 20> S       -0.426778   -2.115489    0.280596
| 21> W        0.581769    0.074169   -0.056710
| 22> O       -3.686516    3.100880   -0.970074
| 23> C       -0.958024    1.126222    0.768552
| 24> C       -1.050846    1.201510   -0.527136
| 25> H       -4.399031   -0.338057    2.886550
| 26> H       -4.651123    1.285347    2.215183
| 27> H        2.286624    2.922259    0.966567
| 28> H        3.439558    1.684807    0.443645
| 29> H       -3.719098    2.271105   -0.448699
| 30> H       -4.432659    3.004669   -1.574445
| 31> H       -1.423366    1.443209    1.691261
| 32> H       -1.628538    1.662411   -1.315772
| 33> H       -1.080680   -2.444086   -3.386693
| 34> H       -2.006521   -3.265324   -1.212989
| 35> H        3.558044    3.288012   -0.266819
| 36> H        2.852091   -0.869929    3.599516
| 37> H        4.480661   -1.317935    1.766923
| 38> H       -6.001258    0.102048    2.241238
| 39> *
| 40>
| 41> %maxcore 5000
| 42>
| 43> %pal
| 44> nprocs = 24
| 45> end
| 46>
| 47>
| 48>                          ****END OF INPUT****

CARTESIAN COORDINATES (ANGSTROEM)
---------------------------------
  C     -4.922177    0.231539    2.107663
  C     -4.446966   -0.260950    0.727306
  O     -4.786048   -1.445661    0.381045
  O     -3.774664    0.534657    0.034272
  C      2.853834    2.539483    0.111094
  S      1.699014    2.002949   -1.213407
  C      2.621388   -0.654255    2.558361
  S      1.079319    0.109893    2.243750
  C      3.475179   -0.966107    1.545638
  S      3.017258   -0.732048   -0.112289
  C     -0.719852   -2.060810   -2.434513
  S      0.476784   -0.759924   -2.482057
  C     -1.165423   -2.576996   -1.263023
  S     -0.426778   -2.115489    0.280596
  W      0.581769    0.074169   -0.056710
  O     -3.686516    3.100880   -0.970074
  C     -0.958024    1.126222    0.768552
  C     -1.050846    1.201510   -0.527136
  H     -4.399031   -0.338057    2.886550
  H     -4.651123    1.285347    2.215183
  H      2.286624    2.922259    0.966567
  H      3.439558    1.684807    0.443645
  H     -3.719098    2.271105   -0.448699
  H     -4.432659    3.004669   -1.574445
  H     -1.423366    1.443209    1.691261
  H     -1.628538    1.662411   -1.315772
  H     -1.080680   -2.444086   -3.386693
  H     -2.006521   -3.265324   -1.212989
  H      3.558044    3.288012   -0.266819
  H      2.852091   -0.869929    3.599516
  H      4.480661   -1.317935    1.766923
  H     -6.001258    0.102048    2.241238

 Total Charge           Charge          ....   -2
 Multiplicity           Mult            ....    1
 Number of Electrons    NEL             ....  188
 Basis Dimension        Dim             .... 1005

ORBITAL ENERGIES
----------------

  NO   OCC          E(Eh)            E(eV)
   0   2.0000     -88.819660     -2416.9058
   1   2.0000     -88.796182     -2416.2670
   2   2.0000     -88.784616     -2415.9522
   3   2.0000     -88.775973     -2415.7170
   4   2.0000     -88.772465     -2415.6216
   5   2.0000     -18.976019      -516.3637
   6   2.0000     -18.906368      -514.4684
   7   2.0000     -18.890984      -514.0498
   8   2.0000     -10.077794      -274.2307
   9   2.0000     -10.065440      -273.8946
  10   2.0000     -10.053144      -273.5600
  11   2.0000     -10.041337      -273.2387
  12   2.0000     -10.032342      -272.9939
  13   2.0000     -10.027338      -272.8577
  14   2.0000     -10.020964      -272.6843
  15   2.0000     -10.018906      -272.6283
  16   2.0000     -10.003776      -272.2166
  17   2.0000      -7.837486      -213.2688
  18   2.0000      -7.814865      -212.6533
  19   2.0000      -7.803082      -212.3327
  20   2.0000      -7.794580      -212.1013
  21   2.0000      -7.790645      -211.9942
  22   2.0000      -5.755817      -156.6237
  23   2.0000      -5.751958      -156.5187
  24   2.0000      -5.750118      -156.4687
  25   2.0000      -5.733592      -156.0190
  26   2.0000      -5.728640      -155.8842
  27   2.0000      -5.727532      -155.8541
  28   2.0000      -5.721697      -155.6953
  29   2.0000      -5.717406      -155.5785
  30   2.0000      -5.715397      -155.5239
  31   2.0000      -5.714023      -155.4865
  32   2.0000      -5.709653      -155.3676
  33   2.0000      -5.709255      -155.3567
  34   2.0000      -5.705635      -155.2582
  35   2.0000      -5.704970      -155.2401
  36   2.0000      -5.702623      -155.1763
  37   2.0000      -2.750952       -74.8572
  38   2.0000      -1.422159       -38.6989
  39   2.0000      -1.419536       -38.6275
  40   2.0000      -1.412768       -38.4434
  41   2.0000      -0.801875       -21.8201
  42   2.0000      -0.789777       -21.4909
  43   2.0000      -0.701804       -19.0971
  44   2.0000      -0.622765       -16.9463
  45   2.0000      -0.586076       -15.9479
  46   2.0000      -0.554417       -15.0864
  47   2.0000      -0.546494       -14.8709
  48   2.0000      -0.529810       -14.4169
  49   2.0000      -0.499593       -13.5946
  50   2.0000      -0.495210       -13.4754
  51   2.0000      -0.459608       -12.5066
  52   2.0000      -0.430063       -11.7026
  53   2.0000      -0.407616       -11.0918
  54   2.0000      -0.347945        -9.4681
  55   2.0000      -0.331765        -9.0278
  56   2.0000      -0.311119        -8.4660
  57   2.0000      -0.308916        -8.4060
  58   2.0000      -0.285591        -7.7713
  59   2.0000      -0.272367        -7.4115
  60   2.0000      -0.268647        -7.3103
  61   2.0000      -0.252365        -6.8672
  62   2.0000      -0.230948        -6.2844
  63   2.0000      -0.223094        -6.0707
  64   2.0000      -0.215439        -5.8624
  65   2.0000      -0.214436        -5.8351
  66   2.0000      -0.206824        -5.6280
  67   2.0000      -0.203525        -5.5382
  68   2.0000      -0.177839        -4.8392
  69   2.0000      -0.174024        -4.7354
  70   2.0000      -0.157485        -4.2854
  71   2.0000      -0.152230        -4.1424
  72   2.0000      -0.147685        -4.0187
  73   2.0000      -0.142300        -3.8722
  74   2.0000      -0.136036        -3.7017
  75   2.0000      -0.130012        -3.5378
  76   2.0000      -0.123418        -3.3584
  77   2.0000      -0.114600        -3.1184
  78   2.0000      -0.104077        -2.8321
  79   2.0000      -0.103165        -2.8073
  80   2.0000      -0.096443        -2.6243
  81   2.0000      -0.086068        -2.3420
  82   2.0000      -0.072606        -1.9757
  83   2.0000      -0.067873        -1.8469
  84   2.0000      -0.052785        -1.4364
  85   2.0000      -0.042801        -1.1647
  86   2.0000      -0.039436        -1.0731
  87   2.0000      -0.017842        -0.4855
  88   2.0000      -0.016554        -0.4505
  89   2.0000      -0.012664        -0.3446
  90   2.0000      -0.011318        -0.3080
  91   2.0000       0.001167         0.0318
  92   2.0000       0.006298         0.1714
  93   2.0000       0.029306         0.7975
  94   0.0000       0.117255         3.1907
  95   0.0000       0.122270         3.3271
  96   0.0000       0.135127         3.6770
  97   0.0000       0.137875         3.7518
  98   0.0000       0.143234         3.8976

MULLIKEN ATOMIC CHARGES
-----------------------
   0 C :   -1.867704
   1 C :    0.456677
   2 O :   -0.678624
   3 O :   -0.430677
   4 C :   -0.935712
   5 S :   -0.460992
   6 C :   -0.226256
   7 S :   -0.396065
   8 C :   -0.403385
   9 S :   -0.430454
  10 C :   -0.354002
  11 S :   -0.477752
  12 C :   -0.304388
  13 S :   -0.461234
  14 W :    0.574132
  15 O :   -0.525972
  16 C :    0.019043
  17 C :   -0.884676
  18 H :    0.496196
  19 H :    0.517346
  20 H :    0.314613
  21 H :    0.195872
  22 H :    0.305095
  23 H :    0.176941
  24 H :    0.511266
  25 H :    0.599176
  26 H :    0.371370
  27 H :    0.439158
  28 H :    0.540633
  29 H :    0.340081
  30 H :    0.391470
  31 H :    0.588826
Sum of atomic charges:   -2.0000000

LOEWDIN ATOMIC CHARGES
----------------------
   0 C :    0.148821
   1 C :   -0.666169
   2 O :   -0.126922
   3 O :   -0.070104
   4 C :   -0.334355
   5 S :    0.429647
   6 C :   -0.554242
   7 S :    0.630228
   8 C :   -0.589668
   9 S :    0.520845
  10 C :   -0.589248
  11 S :    0.453768
  12 C :   -0.548335
  13 S :    0.541212
  14 W :    0.097921
  15 O :    0.356263
  16 C :   -0.210425
  17 C :   -0.174651
  18 H :   -0.024363
  19 H :   -0.032850
  20 H :   -0.083361
  21 H :   -0.149650
  22 H :   -0.275258
  23 H :   -0.221973
  24 H :   -0.052261
  25 H :   -0.043539
  26 H :   -0.081397
  27 H :   -0.068676
  28 H :   -0.087676
  29 H :   -0.084675
  30 H :   -0.074896
  31 H :   -0.034010

  Mayer bond orders larger than 0.100000
B(  0-C ,  1-C ) :   0.4769 B(  0-C ,  2-O ) :   0.1101 B(  0-C , 18-H ) :   0.8984
B(  0-C , 19-H ) :   0.7399 B(  0-C , 31-H ) :   0.7519 B(  1-C ,  2-O ) :   1.6687
B(  1-C ,  3-O ) :   1.8507 B(  3-O , 22-H ) :   0.1133 B(  4-C ,  5-S ) :   0.7231
B(  4-C ,  9-S ) :  -0.1003 B(  4-C , 20-H ) :   1.0421 B(  4-C , 21-H ) :   0.7914
B(  4-C , 28-H ) :   0.7677 B(  5-S , 14-W ) :   0.9263 B(  6-C ,  7-S ) :   0.7595
B(  6-C ,  8-C ) :   1.0130 B(  6-C , 29-H ) :   1.0649 B(  6-C , 30-H ) :  -0.1278
B(  7-S , 14-W ) :   1.1161 B(  7-S , 16-C ) :  -0.1156 B(  8-C ,  9-S ) :   1.0140
B(  8-C , 29-H ) :  -0.1894 B(  8-C , 30-H ) :   0.9747 B(  9-S , 14-W ) :   0.9517
B( 10-C , 11-S ) :   1.0012 B( 10-C , 12-C ) :   1.0665 B( 10-C , 26-H ) :   0.9971
B( 10-C , 27-H ) :  -0.1106 B( 11-S , 14-W ) :   0.7936 B( 12-C , 13-S ) :   0.8984
B( 12-C , 26-H ) :  -0.1242 B( 12-C , 27-H ) :   0.9272 B( 13-S , 14-W ) :   1.1700
B( 13-S , 16-C ) :  -0.2278 B( 13-S , 17-C ) :   0.1419 B( 14-W , 16-C ) :   0.8836
B( 14-W , 17-C ) :   1.0128 B( 15-O , 22-H ) :   0.7965 B( 15-O , 23-H ) :   1.0143
B( 16-C , 17-C ) :   1.0797 B( 16-C , 24-H ) :   0.6837 B( 16-C , 25-H ) :  -0.1827
B( 17-C , 25-H ) :   0.7427

Dispersion correction           -0.007058637
FINAL SINGLE POINT ENERGY     -2635.088348611549

DIPOLE MOMENT
-------------
                                X             Y             Z
Electronic contribution:     93.01064       4.30556     -11.92070
Nuclear contribution   :    -89.05733      -3.76163      13.00017
                        -----------------------------------------
Total Dipole Moment    :      3.95331       0.54393       1.07947
                        -----------------------------------------
Magnitude (a.u.)       :      4.13398
Magnitude (Debye)      :     10.50774

Rotational constants in cm-1:     0.010716     0.005373     0.005252
Rotational constants in MHz :   321.254043   161.065395   157.440366

                             ****ORCA TERMINATED NORMALLY****
TOTAL RUN TIME: 0 days 0 hours 11 minutes 12 seconds 13 msec
