                         Program Version 4.2.0 -  RELEASE  -
|  1> #
|  2> # TMB08_T1 M06-D3/Def2-TZVPPD
|  3> #
|  4> ! m06 d3zero def2-tzvppd def2/jk grid4 nofinalgrid
|  5>
|  6> *xyz -1 1
|  7> O       -0.864683   -0.641223    1.501083
|  8> Mo       0.288309   -0.030923   -0.005993
|  9> O       -1.184159   -0.828813   -0.891579
| 10> S        2.210721   -0.462566    1.360243
| 11> C        3.288131   -1.501862    0.490518
| 12> C        2.967024   -1.951648   -0.740634
| 13> S        1.453819   -1.539049   -1.466752
| 14> S        0.162904    2.082815    1.150192
| 15> C        0.198674    3.373932   -0.002877
| 16> C        0.341525    3.101047   -1.316307
| 17> S        0.442237    1.474962   -1.896418
| 18> S       -2.702756   -1.277235    0.090908
| 19> C       -3.341924    0.299743    0.636465
| 20> H       -3.337931    0.314090    1.732942
| 21> H       -2.648387    1.079744    0.273451
| 22> H       -4.358042    0.459892    0.247281
| 23> C       -3.587204   -1.408361   -1.466934
| 24> H       -3.173718   -2.281309   -1.989593
| 25> H       -4.662596   -1.555426   -1.282985
| 26> H       -3.398030   -0.511824   -2.074907
| 27> C       -0.765264   -0.491871    2.877457
| 28> H       -0.827293    0.572940    3.181404
| 29> H       -1.595209   -1.039646    3.369476
| 30> H        0.192972   -0.897436    3.256104
| 31> H        3.640777   -2.597035   -1.314559
| 32> H        4.229728   -1.767232    0.982509
| 33> H        0.401774    3.897233   -2.066529
| 34> H        0.141166    4.396366    0.384198
| 35> *
| 36>
| 37> %maxcore 5000
| 38>
| 39> %pal
| 40> nprocs = 24
| 41> end
| 42>
| 43>
| 44>                          ****END OF INPUT****

CARTESIAN COORDINATES (ANGSTROEM)
---------------------------------
  O     -0.864683   -0.641223    1.501083
  Mo     0.288309   -0.030923   -0.005993
  O     -1.184159   -0.828813   -0.891579
  S      2.210721   -0.462566    1.360243
  C      3.288131   -1.501862    0.490518
  C      2.967024   -1.951648   -0.740634
  S      1.453819   -1.539049   -1.466752
  S      0.162904    2.082815    1.150192
  C      0.198674    3.373932   -0.002877
  C      0.341525    3.101047   -1.316307
  S      0.442237    1.474962   -1.896418
  S     -2.702756   -1.277235    0.090908
  C     -3.341924    0.299743    0.636465
  H     -3.337931    0.314090    1.732942
  H     -2.648387    1.079744    0.273451
  H     -4.358042    0.459892    0.247281
  C     -3.587204   -1.408361   -1.466934
  H     -3.173718   -2.281309   -1.989593
  H     -4.662596   -1.555426   -1.282985
  H     -3.398030   -0.511824   -2.074907
  C     -0.765264   -0.491871    2.877457
  H     -0.827293    0.572940    3.181404
  H     -1.595209   -1.039646    3.369476
  H      0.192972   -0.897436    3.256104
  H      3.640777   -2.597035   -1.314559
  H      4.229728   -1.767232    0.982509
  H      0.401774    3.897233   -2.066529
  H      0.141166    4.396366    0.384198

 Total Charge           Charge          ....   -1
 Multiplicity           Mult            ....    1
 Number of Electrons    NEL             ....  166
 Basis Dimension        Dim             ....  871

ORBITAL ENERGIES
----------------

  NO   OCC          E(Eh)            E(eV)
   0   2.0000     -88.999136     -2421.7896
   1   2.0000     -88.868452     -2418.2335
   2   2.0000     -88.867442     -2418.2060
   3   2.0000     -88.866368     -2418.1768
   4   2.0000     -88.864280     -2418.1200
   5   2.0000     -19.091859      -519.5159
   6   2.0000     -19.071418      -518.9597
   7   2.0000     -10.168012      -276.6857
   8   2.0000     -10.167646      -276.6757
   9   2.0000     -10.153959      -276.3033
  10   2.0000     -10.116153      -275.2745
  11   2.0000     -10.115988      -275.2700
  12   2.0000     -10.115051      -275.2445
  13   2.0000     -10.114991      -275.2429
  14   2.0000      -8.008681      -217.9273
  15   2.0000      -7.887890      -214.6404
  16   2.0000      -7.886708      -214.6082
  17   2.0000      -7.885361      -214.5716
  18   2.0000      -7.883186      -214.5124
  19   2.0000      -5.927107      -161.2848
  20   2.0000      -5.924849      -161.2233
  21   2.0000      -5.921433      -161.1304
  22   2.0000      -5.806303      -157.9975
  23   2.0000      -5.805108      -157.9650
  24   2.0000      -5.803836      -157.9304
  25   2.0000      -5.801753      -157.8737
  26   2.0000      -5.801689      -157.8720
  27   2.0000      -5.800707      -157.8452
  28   2.0000      -5.800252      -157.8329
  29   2.0000      -5.799821      -157.8212
  30   2.0000      -5.799223      -157.8049
  31   2.0000      -5.798141      -157.7754
  32   2.0000      -5.796839      -157.7400
  33   2.0000      -5.796095      -157.7198
  34   2.0000      -2.452434       -66.7341
  35   2.0000      -1.470621       -40.0176
  36   2.0000      -1.462113       -39.7861
  37   2.0000      -1.452891       -39.5352
  38   2.0000      -0.882655       -24.0183
  39   2.0000      -0.842883       -22.9360
  40   2.0000      -0.723134       -19.6775
  41   2.0000      -0.686427       -18.6786
  42   2.0000      -0.684058       -18.6142
  43   2.0000      -0.629766       -17.1368
  44   2.0000      -0.593221       -16.1424
  45   2.0000      -0.590622       -16.0717
  46   2.0000      -0.550970       -14.9927
  47   2.0000      -0.531522       -14.4635
  48   2.0000      -0.522841       -14.2272
  49   2.0000      -0.512240       -13.9388
  50   2.0000      -0.399953       -10.8833
  51   2.0000      -0.395869       -10.7722
  52   2.0000      -0.382333       -10.4038
  53   2.0000      -0.376290       -10.2394
  54   2.0000      -0.364626        -9.9220
  55   2.0000      -0.350221        -9.5300
  56   2.0000      -0.346766        -9.4360
  57   2.0000      -0.346217        -9.4210
  58   2.0000      -0.335034        -9.1167
  59   2.0000      -0.332725        -9.0539
  60   2.0000      -0.323499        -8.8028
  61   2.0000      -0.303642        -8.2625
  62   2.0000      -0.287802        -7.8315
  63   2.0000      -0.268849        -7.3157
  64   2.0000      -0.255613        -6.9556
  65   2.0000      -0.241803        -6.5798
  66   2.0000      -0.238103        -6.4791
  67   2.0000      -0.225482        -6.1357
  68   2.0000      -0.221283        -6.0214
  69   2.0000      -0.214007        -5.8234
  70   2.0000      -0.203582        -5.5398
  71   2.0000      -0.191497        -5.2109
  72   2.0000      -0.176287        -4.7970
  73   2.0000      -0.172474        -4.6933
  74   2.0000      -0.165075        -4.4919
  75   2.0000      -0.147274        -4.0075
  76   2.0000      -0.135940        -3.6991
  77   2.0000      -0.127274        -3.4633
  78   2.0000      -0.119516        -3.2522
  79   2.0000      -0.111175        -3.0252
  80   2.0000      -0.090452        -2.4613
  81   2.0000      -0.057843        -1.5740
  82   2.0000      -0.051813        -1.4099
  83   0.0000       0.040382         1.0988
  84   0.0000       0.058845         1.6013
  85   0.0000       0.060936         1.6582
  86   0.0000       0.064741         1.7617
  87   0.0000       0.069367         1.8876

MULLIKEN ATOMIC CHARGES
-----------------------
   0 O :    0.202009
   1 Mo:   -0.268739
   2 O :    0.069310
   3 S :   -0.261869
   4 C :   -0.328573
   5 C :   -0.265287
   6 S :   -0.320159
   7 S :   -0.260482
   8 C :   -0.332352
   9 C :   -0.348914
  10 S :   -0.231594
  11 S :    0.193505
  12 C :   -1.176318
  13 H :    0.509935
  14 H :    0.144929
  15 H :    0.603197
  16 C :   -1.709444
  17 H :    0.577659
  18 H :    0.562932
  19 H :    0.487382
  20 C :   -1.569278
  21 H :    0.468236
  22 H :    0.377733
  23 H :    0.445962
  24 H :    0.364213
  25 H :    0.352786
  26 H :    0.330938
  27 H :    0.382283
Sum of atomic charges:   -1.0000000

LOEWDIN ATOMIC CHARGES
----------------------
   0 O :   -0.544171
   1 Mo:    0.338535
   2 O :   -0.698779
   3 S :    0.565456
   4 C :   -0.610603
   5 C :   -0.614497
   6 S :    0.555370
   7 S :    0.567263
   8 C :   -0.613323
   9 C :   -0.629874
  10 S :    0.533923
  11 S :    1.023489
  12 C :   -0.078427
  13 H :   -0.044116
  14 H :   -0.043967
  15 H :   -0.041292
  16 C :   -0.102512
  17 H :   -0.041180
  18 H :   -0.046853
  19 H :   -0.030876
  20 C :   -0.083869
  21 H :   -0.039306
  22 H :   -0.003576
  23 H :   -0.036157
  24 H :   -0.069125
  25 H :   -0.069969
  26 H :   -0.070345
  27 H :   -0.071218

  Mayer bond orders larger than 0.100000
B(  0-O ,  1-Mo) :   0.8330 B(  0-O ,  3-S ) :  -0.1257 B(  0-O , 20-C ) :   0.4415
B(  1-Mo,  2-O ) :   1.1990 B(  1-Mo,  3-S ) :   1.2944 B(  1-Mo,  6-S ) :   1.4681
B(  1-Mo,  7-S ) :   1.0856 B(  1-Mo, 10-S ) :   1.1646 B(  1-Mo, 11-S ) :   0.4031
B(  2-O ,  6-S ) :  -0.2527 B(  2-O , 10-S ) :  -0.1256 B(  2-O , 11-S ) :   0.6700
B(  3-S ,  4-C ) :   0.7591 B(  4-C ,  5-C ) :   1.2359 B(  4-C , 24-H ) :  -0.1909
B(  4-C , 25-H ) :   1.0473 B(  5-C ,  6-S ) :   0.8440 B(  5-C , 24-H ) :   1.0310
B(  5-C , 25-H ) :  -0.2019 B(  7-S ,  8-C ) :   0.7782 B(  8-C ,  9-C ) :   1.1997
B(  8-C , 26-H ) :  -0.2076 B(  8-C , 27-H ) :   1.0142 B(  9-C , 10-S ) :   0.8993
B(  9-C , 26-H ) :   1.0663 B(  9-C , 27-H ) :  -0.2004 B( 11-S , 12-C ) :   0.6100
B( 11-S , 16-C ) :   0.5020 B( 12-C , 13-H ) :   0.8009 B( 12-C , 14-H ) :   0.9997
B( 12-C , 15-H ) :   0.7183 B( 16-C , 17-H ) :   0.7345 B( 16-C , 18-H ) :   0.7842
B( 16-C , 19-H ) :   0.8448 B( 20-C , 21-H ) :   0.8329 B( 20-C , 22-H ) :   0.9636
B( 20-C , 23-H ) :   0.8544 B( 21-H , 23-H ) :   0.1361

Dispersion correction           -0.005483660
FINAL SINGLE POINT ENERGY     -2484.180572400769

DIPOLE MOMENT
-------------
                                X             Y             Z
Electronic contribution:     27.97469      -2.46297      -3.83707
Nuclear contribution   :    -30.46451       1.96400       4.17914
                        -----------------------------------------
Total Dipole Moment    :     -2.48982      -0.49896       0.34207
                        -----------------------------------------
Magnitude (a.u.)       :      2.56226
Magnitude (Debye)      :      6.51275

Rotational constants in cm-1:     0.012781     0.009890     0.008747
Rotational constants in MHz :   383.176431   296.486696   262.216571

                             ****ORCA TERMINATED NORMALLY****
TOTAL RUN TIME: 0 days 0 hours 9 minutes 13 seconds 829 msec
