                         Program Version 4.2.0 -  RELEASE  -
|  1> #
|  2> # TMB10_C1 M06-D3/Def2-TZVPPD
|  3> #
|  4> ! m06 d3zero def2-tzvppd def2/jk grid4 nofinalgrid
|  5>
|  6> *xyz 0 1
|  7> Mo       0.133298    0.019814    0.066207
|  8> C       -1.075332   -1.355629   -0.909336
|  9> C       -2.072844    2.216315    0.675821
| 10> H       -2.495915    2.026095    1.680930
| 11> H       -2.910608    2.260759   -0.044542
| 12> H       -1.592380    3.211696    0.695601
| 13> C        3.010907   -1.316541   -0.054396
| 14> C        1.366704    2.705574   -0.540684
| 15> N       -1.143030    1.200231    0.316847
| 16> O        1.491405    1.304940   -0.439122
| 17> O        1.615447   -1.247555   -0.063202
| 18> H        3.367194   -2.025819   -0.825669
| 19> H        3.385726   -1.672276    0.926079
| 20> H        3.451946   -0.322838   -0.260301
| 21> H        2.294131    3.111318   -0.982908
| 22> H        1.229038    3.178184    0.450904
| 23> H        0.520365    2.998986   -1.190253
| 24> C       -0.462062   -1.067727    1.747714
| 25> C       -1.245054   -1.851214    0.615257
| 26> H        0.321659   -1.674412    2.211474
| 27> H       -1.131198   -0.604236    2.478956
| 28> H       -0.901967   -2.892720    0.638908
| 29> H       -2.316994   -1.775934    0.836451
| 30> C       -2.372818   -1.072037   -1.638655
| 31> H       -2.166926   -0.639290   -2.630957
| 32> H       -2.958163   -1.996472   -1.801781
| 33> H       -3.005382   -0.361002   -1.085358
| 34> H       -0.439666   -2.067375   -1.451890
| 35> *
| 36>
| 37> %maxcore 5000
| 38>
| 39> %pal
| 40> nprocs = 24
| 41> end
| 42>
| 43>
| 44>                          ****END OF INPUT****

CARTESIAN COORDINATES (ANGSTROEM)
---------------------------------
  Mo     0.133298    0.019814    0.066207
  C     -1.075332   -1.355629   -0.909336
  C     -2.072844    2.216315    0.675821
  H     -2.495915    2.026095    1.680930
  H     -2.910608    2.260759   -0.044542
  H     -1.592380    3.211696    0.695601
  C      3.010907   -1.316541   -0.054396
  C      1.366704    2.705574   -0.540684
  N     -1.143030    1.200231    0.316847
  O      1.491405    1.304940   -0.439122
  O      1.615447   -1.247555   -0.063202
  H      3.367194   -2.025819   -0.825669
  H      3.385726   -1.672276    0.926079
  H      3.451946   -0.322838   -0.260301
  H      2.294131    3.111318   -0.982908
  H      1.229038    3.178184    0.450904
  H      0.520365    2.998986   -1.190253
  C     -0.462062   -1.067727    1.747714
  C     -1.245054   -1.851214    0.615257
  H      0.321659   -1.674412    2.211474
  H     -1.131198   -0.604236    2.478956
  H     -0.901967   -2.892720    0.638908
  H     -2.316994   -1.775934    0.836451
  C     -2.372818   -1.072037   -1.638655
  H     -2.166926   -0.639290   -2.630957
  H     -2.958163   -1.996472   -1.801781
  H     -3.005382   -0.361002   -1.085358
  H     -0.439666   -2.067375   -1.451890

 Total Charge           Charge          ....    0
 Multiplicity           Mult            ....    1
 Number of Electrons    NEL             ....   96
 Basis Dimension        Dim             ....  721

ORBITAL ENERGIES
----------------

  NO   OCC          E(Eh)            E(eV)
   0   2.0000     -19.188278      -522.1396
   1   2.0000     -19.172130      -521.7002
   2   2.0000     -14.389532      -391.5591
   3   2.0000     -10.272092      -279.5178
   4   2.0000     -10.269622      -279.4506
   5   2.0000     -10.267867      -279.4029
   6   2.0000     -10.256271      -279.0873
   7   2.0000     -10.253943      -279.0240
   8   2.0000     -10.241641      -278.6892
   9   2.0000     -10.235658      -278.5264
  10   2.0000      -2.604786       -70.8798
  11   2.0000      -1.623735       -44.1841
  12   2.0000      -1.620044       -44.0836
  13   2.0000      -1.606902       -43.7260
  14   2.0000      -0.988501       -26.8985
  15   2.0000      -0.978019       -26.6132
  16   2.0000      -0.856006       -23.2931
  17   2.0000      -0.805251       -21.9120
  18   2.0000      -0.738370       -20.0921
  19   2.0000      -0.662550       -18.0289
  20   2.0000      -0.658093       -17.9076
  21   2.0000      -0.643565       -17.5123
  22   2.0000      -0.634140       -17.2558
  23   2.0000      -0.570970       -15.5369
  24   2.0000      -0.495032       -13.4705
  25   2.0000      -0.476401       -12.9635
  26   2.0000      -0.470252       -12.7962
  27   2.0000      -0.456891       -12.4326
  28   2.0000      -0.453740       -12.3469
  29   2.0000      -0.445659       -12.1270
  30   2.0000      -0.442434       -12.0392
  31   2.0000      -0.434863       -11.8332
  32   2.0000      -0.432149       -11.7594
  33   2.0000      -0.425308       -11.5732
  34   2.0000      -0.421014       -11.4564
  35   2.0000      -0.409208       -11.1351
  36   2.0000      -0.397798       -10.8246
  37   2.0000      -0.397187       -10.8080
  38   2.0000      -0.363342        -9.8870
  39   2.0000      -0.355159        -9.6644
  40   2.0000      -0.326300        -8.8791
  41   2.0000      -0.309841        -8.4312
  42   2.0000      -0.303827        -8.2676
  43   2.0000      -0.278816        -7.5870
  44   2.0000      -0.275817        -7.5054
  45   2.0000      -0.264741        -7.2040
  46   2.0000      -0.257007        -6.9935
  47   2.0000      -0.247553        -6.7363
  48   0.0000      -0.054222        -1.4754
  49   0.0000      -0.041007        -1.1159
  50   0.0000      -0.035992        -0.9794
  51   0.0000      -0.031481        -0.8566
  52   0.0000      -0.018092        -0.4923

MULLIKEN ATOMIC CHARGES
-----------------------
   0 Mo:   -0.351514
   1 C :    0.495377
   2 C :   -1.220859
   3 H :    0.444645
   4 H :    0.480467
   5 H :    0.440957
   6 C :   -1.214810
   7 C :   -1.102582
   8 N :   -0.124922
   9 O :   -0.220261
  10 O :   -0.080501
  11 H :    0.410315
  12 H :    0.413046
  13 H :    0.388335
  14 H :    0.403544
  15 H :    0.402967
  16 H :    0.371636
  17 C :   -1.277815
  18 C :   -1.443196
  19 H :    0.614447
  20 H :    0.555536
  21 H :    0.823251
  22 H :    0.831148
  23 C :   -2.527669
  24 H :    0.602002
  25 H :    0.578390
  26 H :    0.517808
  27 H :    0.790259
Sum of atomic charges:   -0.0000000

LOEWDIN ATOMIC CHARGES
----------------------
   0 Mo:    1.183464
   1 C :   -0.214382
   2 C :    0.023297
   3 H :   -0.003586
   4 H :   -0.006676
   5 H :   -0.009058
   6 C :   -0.001484
   7 C :   -0.018945
   8 N :   -0.110992
   9 O :   -0.330819
  10 O :   -0.333773
  11 H :   -0.002853
  12 H :   -0.002057
  13 H :   -0.011734
  14 H :   -0.002287
  15 H :   -0.006969
  16 H :   -0.011065
  17 C :   -0.014275
  18 C :   -0.069521
  19 H :   -0.047931
  20 H :   -0.051458
  21 H :    0.015157
  22 H :    0.011670
  23 C :    0.073947
  24 H :   -0.009457
  25 H :   -0.005742
  26 H :   -0.022119
  27 H :   -0.020350

  Mayer bond orders larger than 0.100000
B(  0-Mo,  1-C ) :   0.8507 B(  0-Mo,  2-C ) :   0.1324 B(  0-Mo,  8-N ) :   1.6664
B(  0-Mo,  9-O ) :   1.0701 B(  0-Mo, 10-O ) :   1.0565 B(  0-Mo, 17-C ) :   0.9840
B(  0-Mo, 18-C ) :   0.3146 B(  0-Mo, 19-H ) :   0.1038 B(  0-Mo, 23-C ) :   0.2137
B(  1-C , 10-O ) :  -0.1176 B(  1-C , 18-C ) :   0.3161 B(  1-C , 23-C ) :  -0.2923
B(  1-C , 26-H ) :  -0.1937 B(  1-C , 27-H ) :   0.5446 B(  2-C ,  3-H ) :   0.8505
B(  2-C ,  4-H ) :   0.7840 B(  2-C ,  5-H ) :   0.8302 B(  2-C ,  8-N ) :   0.1180
B(  6-C , 10-O ) :   0.4972 B(  6-C , 11-H ) :   0.8609 B(  6-C , 12-H ) :   0.8538
B(  6-C , 13-H ) :   0.8369 B(  7-C ,  9-O ) :   0.6091 B(  7-C , 14-H ) :   0.8804
B(  7-C , 15-H ) :   0.8457 B(  7-C , 16-H ) :   0.8075 B(  8-N , 10-O ) :   0.1531
B( 10-O , 17-C ) :  -0.1370 B( 17-C , 18-C ) :   0.5605 B( 17-C , 19-H ) :   0.7752
B( 17-C , 20-H ) :   0.8622 B( 18-C , 21-H ) :   0.4124 B( 18-C , 22-H ) :   0.4329
B( 18-C , 23-C ) :   0.2683 B( 21-H , 22-H ) :   0.1156 B( 23-C , 24-H ) :   0.7077
B( 23-C , 25-H ) :   0.8295 B( 23-C , 26-H ) :   0.8264 B( 24-H , 25-H ) :   0.1125
B( 24-H , 26-H ) :   0.1121

Dispersion correction           -0.003911472
FINAL SINGLE POINT ENERGY      -550.261279324039

DIPOLE MOMENT
-------------
                                X             Y             Z
Electronic contribution:     11.09045       0.80791       4.61253
Nuclear contribution   :    -12.16779      -0.65832      -4.35638
                        -----------------------------------------
Total Dipole Moment    :     -1.07734       0.14959       0.25615
                        -----------------------------------------
Magnitude (a.u.)       :      1.11743
Magnitude (Debye)      :      2.84029

Rotational constants in cm-1:     0.031161     0.027931     0.019091
Rotational constants in MHz :   934.171856   837.337056   572.342467

                             ****ORCA TERMINATED NORMALLY****
TOTAL RUN TIME: 0 days 0 hours 4 minutes 19 seconds 144 msec
