                         Program Version 4.2.0 -  RELEASE  -
|  1> #
|  2> # TMB29_C2 M06-D3/Def2-TZVPPD
|  3> #
|  4> ! m06 d3zero def2-tzvppd def2/jk grid4 nofinalgrid
|  5>
|  6> *xyz 1 1
|  7> C        0.315194   -1.265840   -0.205097
|  8> C        1.442343   -0.626838    0.044790
|  9> C        0.309905   -2.700146   -0.639207
| 10> H        1.304587   -3.137496   -0.733589
| 11> H       -0.263876   -3.299051    0.071387
| 12> H       -0.202915   -2.796953   -1.598442
| 13> C        1.798588    0.767906    0.516696
| 14> O        3.282693    0.709723    0.495405
| 15> C        3.659486   -0.471899    0.173285
| 16> O        2.736849   -1.295199   -0.102354
| 17> C        1.344136    1.838147   -0.506262
| 18> O        0.287215    2.374668   -0.320274
| 19> C        2.219880    2.103298   -1.689301
| 20> H        2.470349    1.173144   -2.206730
| 21> H        1.702341    2.771806   -2.372494
| 22> H        3.157528    2.564787   -1.369834
| 23> C        5.078697   -0.839761    0.144564
| 24> H        5.213504   -1.795905   -0.353509
| 25> H        5.652959   -0.054437   -0.347617
| 26> H        5.438400   -0.910855    1.175413
| 27> C        1.364152    1.101522    1.920814
| 28> H        1.754676    2.072052    2.227431
| 29> H        0.275994    1.149047    1.931402
| 30> H        1.690154    0.330993    2.618895
| 31> Au      -1.496985   -0.316099   -0.013075
| 32> P       -3.546234    0.682452    0.150815
| 33> H       -3.831804    1.712524   -0.762172
| 34> H       -4.687337   -0.122280   -0.012331
| 35> H       -3.867595    1.325764    1.359005
| 36> *
| 37>
| 38> %maxcore 5000
| 39>
| 40> %pal
| 41> nprocs = 24
| 42> end
| 43>
| 44>
| 45>                          ****END OF INPUT****

CARTESIAN COORDINATES (ANGSTROEM)
---------------------------------
  C      0.315194   -1.265840   -0.205097
  C      1.442343   -0.626838    0.044790
  C      0.309905   -2.700146   -0.639207
  H      1.304587   -3.137496   -0.733589
  H     -0.263876   -3.299051    0.071387
  H     -0.202915   -2.796953   -1.598442
  C      1.798588    0.767906    0.516696
  O      3.282693    0.709723    0.495405
  C      3.659486   -0.471899    0.173285
  O      2.736849   -1.295199   -0.102354
  C      1.344136    1.838147   -0.506262
  O      0.287215    2.374668   -0.320274
  C      2.219880    2.103298   -1.689301
  H      2.470349    1.173144   -2.206730
  H      1.702341    2.771806   -2.372494
  H      3.157528    2.564787   -1.369834
  C      5.078697   -0.839761    0.144564
  H      5.213504   -1.795905   -0.353509
  H      5.652959   -0.054437   -0.347617
  H      5.438400   -0.910855    1.175413
  C      1.364152    1.101522    1.920814
  H      1.754676    2.072052    2.227431
  H      0.275994    1.149047    1.931402
  H      1.690154    0.330993    2.618895
  Au    -1.496985   -0.316099   -0.013075
  P     -3.546234    0.682452    0.150815
  H     -3.831804    1.712524   -0.762172
  H     -4.687337   -0.122280   -0.012331
  H     -3.867595    1.325764    1.359005

 Total Charge           Charge          ....    1
 Multiplicity           Mult            ....    1
 Number of Electrons    NEL             ....  126
 Basis Dimension        Dim             ....  815

ORBITAL ENERGIES
----------------

  NO   OCC          E(Eh)            E(eV)
   0   2.0000     -77.382628     -2105.6884
   1   2.0000     -19.463405      -529.6262
   2   2.0000     -19.458287      -529.4869
   3   2.0000     -19.339170      -526.2456
   4   2.0000     -10.581453      -287.9360
   5   2.0000     -10.478843      -285.1438
   6   2.0000     -10.469656      -284.8938
   7   2.0000     -10.436710      -283.9973
   8   2.0000     -10.411649      -283.3154
   9   2.0000     -10.373386      -282.2742
  10   2.0000     -10.365774      -282.0670
  11   2.0000     -10.365305      -282.0543
  12   2.0000     -10.345007      -281.5020
  13   2.0000      -6.812814      -185.3861
  14   2.0000      -4.932997      -134.2337
  15   2.0000      -4.932966      -134.2328
  16   2.0000      -4.930402      -134.1631
  17   2.0000      -4.282020      -116.5197
  18   2.0000      -2.473221       -67.2998
  19   2.0000      -2.462722       -67.0141
  20   2.0000      -2.461777       -66.9884
  21   2.0000      -1.377842       -37.4930
  22   2.0000      -1.270855       -34.5817
  23   2.0000      -1.210015       -32.9262
  24   2.0000      -1.011754       -27.5312
  25   2.0000      -0.934607       -25.4320
  26   2.0000      -0.924747       -25.1636
  27   2.0000      -0.893089       -24.3022
  28   2.0000      -0.841509       -22.8986
  29   2.0000      -0.813441       -22.1349
  30   2.0000      -0.812787       -22.1171
  31   2.0000      -0.798127       -21.7181
  32   2.0000      -0.752274       -20.4704
  33   2.0000      -0.738882       -20.1060
  34   2.0000      -0.699820       -19.0431
  35   2.0000      -0.661615       -18.0034
  36   2.0000      -0.633351       -17.2344
  37   2.0000      -0.612286       -16.6612
  38   2.0000      -0.607203       -16.5228
  39   2.0000      -0.596546       -16.2328
  40   2.0000      -0.592870       -16.1328
  41   2.0000      -0.589111       -16.0305
  42   2.0000      -0.582428       -15.8487
  43   2.0000      -0.579655       -15.7732
  44   2.0000      -0.568020       -15.4566
  45   2.0000      -0.553996       -15.0750
  46   2.0000      -0.552090       -15.0231
  47   2.0000      -0.551696       -15.0124
  48   2.0000      -0.549082       -14.9413
  49   2.0000      -0.540163       -14.6986
  50   2.0000      -0.531686       -14.4679
  51   2.0000      -0.530562       -14.4373
  52   2.0000      -0.521345       -14.1865
  53   2.0000      -0.509441       -13.8626
  54   2.0000      -0.505567       -13.7572
  55   2.0000      -0.465599       -12.6696
  56   2.0000      -0.451739       -12.2924
  57   2.0000      -0.446023       -12.1369
  58   2.0000      -0.445097       -12.1117
  59   2.0000      -0.426833       -11.6147
  60   2.0000      -0.419727       -11.4213
  61   2.0000      -0.388664       -10.5761
  62   2.0000      -0.382182       -10.3997
  63   0.0000      -0.198653        -5.4056
  64   0.0000      -0.159999        -4.3538
  65   0.0000      -0.146649        -3.9905
  66   0.0000      -0.140506        -3.8234
  67   0.0000      -0.132789        -3.6134

MULLIKEN ATOMIC CHARGES
-----------------------
   0 C :    0.368137
   1 C :   -1.083136
   2 C :   -2.159553
   3 H :    0.520861
   4 H :    0.599840
   5 H :    0.583307
   6 C :    3.256785
   7 O :   -0.611191
   8 C :    1.697452
   9 O :   -0.702751
  10 C :    0.346548
  11 O :   -0.668913
  12 C :   -2.359329
  13 H :    0.487315
  14 H :    0.756127
  15 H :    0.565620
  16 C :   -2.075857
  17 H :    0.576553
  18 H :    0.578520
  19 H :    0.547674
  20 C :   -2.892942
  21 H :    0.724228
  22 H :    0.560373
  23 H :    0.680746
  24 Au:    0.398065
  25 P :   -0.506973
  26 H :    0.278478
  27 H :    0.263247
  28 H :    0.270768
Sum of atomic charges:    1.0000000

LOEWDIN ATOMIC CHARGES
----------------------
   0 C :   -0.264728
   1 C :   -0.180038
   2 C :    0.089642
   3 H :   -0.013067
   4 H :   -0.007660
   5 H :   -0.008863
   6 C :   -0.266359
   7 O :    0.150914
   8 C :   -0.294773
   9 O :    0.173585
  10 C :   -0.317366
  11 O :    0.086155
  12 C :    0.238076
  13 H :    0.013058
  14 H :    0.015265
  15 H :    0.015292
  16 C :    0.302726
  17 H :    0.026926
  18 H :    0.031623
  19 H :    0.038309
  20 C :    0.226461
  21 H :    0.024265
  22 H :   -0.008348
  23 H :    0.022367
  24 Au:    0.591811
  25 P :    0.812493
  26 H :   -0.163495
  27 H :   -0.168365
  28 H :   -0.165904

  Mayer bond orders larger than 0.100000
B(  0-C ,  1-C ) :   0.5276 B(  0-C ,  2-C ) :  -0.1480 B(  0-C ,  4-H ) :  -0.1633
B(  0-C ,  5-H ) :  -0.1859 B(  0-C ,  9-O ) :   0.1316 B(  0-C , 10-C ) :   0.2052
B(  0-C , 24-Au) :   1.5853 B(  0-C , 25-P ) :   0.1350 B(  1-C ,  6-C ) :  -1.0753
B(  1-C ,  7-O ) :  -0.2862 B(  1-C ,  9-O ) :   0.8838 B(  1-C , 10-C ) :   1.0991
B(  1-C , 12-C ) :   0.1432 B(  1-C , 20-C ) :   0.2350 B(  1-C , 24-Au) :   0.2702
B(  2-C ,  3-H ) :   0.8128 B(  2-C ,  4-H ) :   0.7540 B(  2-C ,  5-H ) :   0.7951
B(  2-C ,  9-O ) :   0.1483 B(  2-C , 10-C ) :  -0.1151 B(  6-C ,  7-O ) :   0.7190
B(  6-C ,  8-C ) :  -0.1191 B(  6-C ,  9-O ) :  -0.1153 B(  6-C , 10-C ) :  -0.8474
B(  6-C , 11-O ) :  -0.1028 B(  6-C , 12-C ) :  -0.2600 B(  6-C , 20-C ) :  -0.6868
B(  6-C , 22-H ) :  -0.4307 B(  6-C , 24-Au) :   0.1589 B(  7-O ,  8-C ) :   0.8949
B(  7-O , 20-C ) :   0.1198 B(  8-C ,  9-O ) :   0.9033 B(  8-C , 19-H ) :  -0.1133
B( 10-C , 11-O ) :   1.5425 B( 10-C , 13-H ) :  -0.1899 B( 10-C , 15-H ) :  -0.1710
B( 10-C , 20-C ) :  -0.3009 B( 11-O , 12-C ) :   0.1273 B( 12-C , 13-H ) :   0.9061
B( 12-C , 14-H ) :   0.4557 B( 12-C , 15-H ) :   0.8780 B( 16-C , 17-H ) :   0.7794
B( 16-C , 18-H ) :   0.7666 B( 16-C , 19-H ) :   0.7505 B( 20-C , 21-H ) :   0.5236
B( 20-C , 22-H ) :   1.1062 B( 20-C , 23-H ) :   0.6047 B( 21-H , 22-H ) :   0.1230
B( 22-H , 23-H ) :   0.1024 B( 24-Au, 25-P ) :   0.7068 B( 25-P , 26-H ) :   0.8588
B( 25-P , 27-H ) :   0.8836 B( 25-P , 28-H ) :   0.8621

Dispersion correction           -0.005032728
FINAL SINGLE POINT ENERGY     -1054.413497759373

DIPOLE MOMENT
-------------
                                X             Y             Z
Electronic contribution:   -213.34710     -43.42476      -1.31581
Nuclear contribution   :    216.19870      43.43467       1.47956
                        -----------------------------------------
Total Dipole Moment    :      2.85160       0.00991       0.16375
                        -----------------------------------------
Magnitude (a.u.)       :      2.85632
Magnitude (Debye)      :      7.26018

Rotational constants in cm-1:     0.028648     0.008219     0.007101
Rotational constants in MHz :   858.848987   246.390678   212.872024

                             ****ORCA TERMINATED NORMALLY****
TOTAL RUN TIME: 0 days 0 hours 5 minutes 29 seconds 688 msec
