                         Program Version 4.2.0 -  RELEASE  -
|  1> #
|  2> # TMB20_T2 M06-D3/Def2-TZVPPD
|  3> #
|  4> ! m06 d3zero def2-tzvppd def2/jk grid4 nofinalgrid
|  5>
|  6> *xyz 0 1
|  7> Re       0.995979    0.090170   -0.058185
|  8> C        2.014396   -1.161086   -1.123855
|  9> C        1.992692   -0.479631    1.452527
| 10> C        2.318376    1.423242   -0.367549
| 11> Br      -0.834689   -1.732689    0.254349
| 12> O        3.132368    2.217573   -0.550268
| 13> O        2.612239   -1.888693   -1.769425
| 14> O        2.568963   -0.789175    2.393169
| 15> C       -1.540273    1.685786    1.546594
| 16> C       -0.263771    1.318522    1.475095
| 17> C       -2.014636    1.773094    0.144138
| 18> C       -2.942101    0.711821   -0.394874
| 19> O       -2.841029    0.284728   -1.529710
| 20> O       -3.882762    0.367872    0.447794
| 21> C       -0.602735    1.743713   -0.435058
| 22> O       -0.382838    0.990264   -1.561710
| 23> H       -1.229741    0.476538   -1.736592
| 24> C       -4.752144   -0.688497    0.013665
| 25> H       -5.447661   -0.845693    0.832416
| 26> H       -5.279179   -0.395656   -0.893281
| 27> H       -4.161178   -1.583930   -0.173849
| 28> H        0.422554    1.379477    2.313653
| 29> H       -2.484103    2.733887   -0.106082
| 30> H       -2.090878    1.979492    2.431124
| 31> H       -0.128477    2.714877   -0.508669
| 32> *
| 33>
| 34> %maxcore 5000
| 35>
| 36> %pal
| 37> nprocs = 24
| 38> end
| 39>
| 40>
| 41>                          ****END OF INPUT****

CARTESIAN COORDINATES (ANGSTROEM)
---------------------------------
  Re     0.995979    0.090170   -0.058185
  C      2.014396   -1.161086   -1.123855
  C      1.992692   -0.479631    1.452527
  C      2.318376    1.423242   -0.367549
  Br    -0.834689   -1.732689    0.254349
  O      3.132368    2.217573   -0.550268
  O      2.612239   -1.888693   -1.769425
  O      2.568963   -0.789175    2.393169
  C     -1.540273    1.685786    1.546594
  C     -0.263771    1.318522    1.475095
  C     -2.014636    1.773094    0.144138
  C     -2.942101    0.711821   -0.394874
  O     -2.841029    0.284728   -1.529710
  O     -3.882762    0.367872    0.447794
  C     -0.602735    1.743713   -0.435058
  O     -0.382838    0.990264   -1.561710
  H     -1.229741    0.476538   -1.736592
  C     -4.752144   -0.688497    0.013665
  H     -5.447661   -0.845693    0.832416
  H     -5.279179   -0.395656   -0.893281
  H     -4.161178   -1.583930   -0.173849
  H      0.422554    1.379477    2.313653
  H     -2.484103    2.733887   -0.106082
  H     -2.090878    1.979492    2.431124
  H     -0.128477    2.714877   -0.508669

 Total Charge           Charge          ....    0
 Multiplicity           Mult            ....    1
 Number of Electrons    NEL             ....  160
 Basis Dimension        Dim             ....  825

ORBITAL ENERGIES
----------------

  NO   OCC          E(Eh)            E(eV)
   0   2.0000    -483.118021    -13146.3097
   1   2.0000     -62.749974     -1707.5136
   2   2.0000     -56.457676     -1536.2915
   3   2.0000     -56.456077     -1536.2479
   4   2.0000     -56.455976     -1536.2452
   5   2.0000     -19.308141      -525.4012
   6   2.0000     -19.299274      -525.1599
   7   2.0000     -19.283426      -524.7287
   8   2.0000     -19.278897      -524.6054
   9   2.0000     -19.268000      -524.3089
  10   2.0000     -19.242671      -523.6197
  11   2.0000     -10.415395      -283.4173
  12   2.0000     -10.393417      -282.8193
  13   2.0000     -10.353684      -281.7381
  14   2.0000     -10.351125      -281.6684
  15   2.0000     -10.341768      -281.4138
  16   2.0000     -10.313488      -280.6443
  17   2.0000     -10.308814      -280.5171
  18   2.0000     -10.291442      -280.0444
  19   2.0000     -10.277934      -279.6768
  20   2.0000      -8.785998      -239.0792
  21   2.0000      -6.561954      -178.5598
  22   2.0000      -6.556846      -178.4209
  23   2.0000      -6.556534      -178.4124
  24   2.0000      -3.189918       -86.8021
  25   2.0000      -2.621649       -71.3387
  26   2.0000      -2.620170       -71.2984
  27   2.0000      -2.619930       -71.2919
  28   2.0000      -2.615896       -71.1821
  29   2.0000      -2.615876       -71.1816
  30   2.0000      -1.778628       -48.3989
  31   2.0000      -1.769329       -48.1459
  32   2.0000      -1.768001       -48.1098
  33   2.0000      -1.181125       -32.1400
  34   2.0000      -1.153775       -31.3958
  35   2.0000      -1.152602       -31.3639
  36   2.0000      -1.148920       -31.2637
  37   2.0000      -1.137349       -30.9488
  38   2.0000      -1.089610       -29.6498
  39   2.0000      -0.906839       -24.6763
  40   2.0000      -0.793197       -21.5840
  41   2.0000      -0.748624       -20.3711
  42   2.0000      -0.729810       -19.8591
  43   2.0000      -0.720472       -19.6051
  44   2.0000      -0.634354       -17.2616
  45   2.0000      -0.616708       -16.7815
  46   2.0000      -0.599321       -16.3083
  47   2.0000      -0.587801       -15.9949
  48   2.0000      -0.578832       -15.7508
  49   2.0000      -0.577960       -15.7271
  50   2.0000      -0.572380       -15.5753
  51   2.0000      -0.545336       -14.8394
  52   2.0000      -0.539883       -14.6910
  53   2.0000      -0.531365       -14.4592
  54   2.0000      -0.517163       -14.0727
  55   2.0000      -0.496619       -13.5137
  56   2.0000      -0.487658       -13.2698
  57   2.0000      -0.486262       -13.2319
  58   2.0000      -0.484582       -13.1861
  59   2.0000      -0.478200       -13.0125
  60   2.0000      -0.472872       -12.8675
  61   2.0000      -0.468100       -12.7376
  62   2.0000      -0.464453       -12.6384
  63   2.0000      -0.461902       -12.5690
  64   2.0000      -0.460175       -12.5220
  65   2.0000      -0.450816       -12.2673
  66   2.0000      -0.449668       -12.2361
  67   2.0000      -0.425476       -11.5778
  68   2.0000      -0.413013       -11.2387
  69   2.0000      -0.406838       -11.0706
  70   2.0000      -0.365666        -9.9503
  71   2.0000      -0.358681        -9.7602
  72   2.0000      -0.348990        -9.4965
  73   2.0000      -0.329511        -8.9665
  74   2.0000      -0.304552        -8.2873
  75   2.0000      -0.291445        -7.9306
  76   2.0000      -0.279074        -7.5940
  77   2.0000      -0.263354        -7.1662
  78   2.0000      -0.242019        -6.5857
  79   2.0000      -0.237955        -6.4751
  80   0.0000      -0.082609        -2.2479
  81   0.0000      -0.051317        -1.3964
  82   0.0000      -0.040257        -1.0954
  83   0.0000      -0.036990        -1.0066
  84   0.0000      -0.029450        -0.8014

MULLIKEN ATOMIC CHARGES
-----------------------
   0 Re:    1.208738
   1 C :    0.577658
   2 C :    0.416790
   3 C :    0.235549
   4 Br:   -0.771047
   5 O :   -0.579375
   6 O :   -0.523188
   7 O :   -0.566439
   8 C :   -1.348432
   9 C :   -0.603373
  10 C :    0.266160
  11 C :    0.456618
  12 O :   -0.662684
  13 O :   -0.385275
  14 C :   -1.027747
  15 O :   -0.739055
  16 H :    0.614712
  17 C :   -1.313309
  18 H :    0.488280
  19 H :    0.529810
  20 H :    0.526325
  21 H :    0.477426
  22 H :    0.939843
  23 H :    0.615907
  24 H :    1.166106
Sum of atomic charges:   -0.0000000

LOEWDIN ATOMIC CHARGES
----------------------
   0 Re:    0.575476
   1 C :   -0.262183
   2 C :   -0.302638
   3 C :   -0.252898
   4 Br:    0.168270
   5 O :    0.091084
   6 O :    0.121303
   7 O :    0.119543
   8 C :    0.012781
   9 C :    0.024275
  10 C :   -0.089136
  11 C :   -0.474174
  12 O :    0.106180
  13 O :    0.030851
  14 C :   -0.146405
  15 O :    0.133498
  16 H :   -0.197736
  17 C :    0.193393
  18 H :    0.016179
  19 H :    0.017501
  20 H :    0.008377
  21 H :   -0.031473
  22 H :    0.074472
  23 H :    0.020328
  24 H :    0.043133

  Mayer bond orders larger than 0.100000
B(  0-Re,  1-C ) :   1.0961 B(  0-Re,  2-C ) :   1.1426 B(  0-Re,  3-C ) :   1.1791
B(  0-Re,  4-Br) :  -0.2821 B(  0-Re, 14-C ) :   0.4039 B(  0-Re, 15-O ) :   0.2003
B(  1-C ,  2-C ) :  -0.1581 B(  1-C ,  6-O ) :   1.6509 B(  2-C ,  4-Br) :   0.1628
B(  2-C ,  7-O ) :   1.6836 B(  2-C ,  9-C ) :   0.1534 B(  3-C ,  5-O ) :   1.6053
B(  4-Br,  9-C ) :   0.1594 B(  4-Br, 14-C ) :   0.1040 B(  8-C ,  9-C ) :   1.2743
B(  8-C , 10-C ) :   0.1994 B(  8-C , 13-O ) :   0.1372 B(  8-C , 23-H ) :   0.6251
B(  9-C , 14-C ) :   0.3913 B(  9-C , 21-H ) :   0.9659 B( 10-C , 11-C ) :   0.3744
B( 10-C , 14-C ) :   1.1474 B( 10-C , 22-H ) :   0.2439 B( 11-C , 12-O ) :   1.3528
B( 11-C , 13-O ) :   1.0004 B( 11-C , 14-C ) :   0.3889 B( 13-O , 17-C ) :   0.4598
B( 14-C , 15-O ) :   0.8004 B( 14-C , 24-H ) :  -0.1737 B( 15-O , 16-H ) :   0.5046
B( 15-O , 24-H ) :  -0.1386 B( 17-C , 18-H ) :   0.7952 B( 17-C , 19-H ) :   0.7613
B( 17-C , 20-H ) :   0.7196

Dispersion correction           -0.004677991
FINAL SINGLE POINT ENERGY     -3451.409015383443

DIPOLE MOMENT
-------------
                                X             Y             Z
Electronic contribution:    141.11609      -0.74028      -7.47338
Nuclear contribution   :   -143.25315       2.56406       7.67326
                        -----------------------------------------
Total Dipole Moment    :     -2.13706       1.82378       0.19989
                        -----------------------------------------
Magnitude (a.u.)       :      2.81658
Magnitude (Debye)      :      7.15919

Rotational constants in cm-1:     0.017495     0.008280     0.007326
Rotational constants in MHz :   524.496520   248.224980   219.630549

                             ****ORCA TERMINATED NORMALLY****
TOTAL RUN TIME: 0 days 0 hours 6 minutes 3 seconds 115 msec
