                         Program Version 4.2.0 -  RELEASE  -
|  1> #
|  2> # TMB20_T1 M06-D3/Def2-TZVPPD
|  3> #
|  4> ! m06 d3zero def2-tzvppd def2/jk grid4 nofinalgrid
|  5>
|  6> *xyz 0 1
|  7> Re       1.075850    0.159419    0.019780
|  8> C        2.196750   -0.403878   -1.423482
|  9> C        2.402994   -0.436307    1.215711
| 10> C        1.922458    1.855293   -0.011396
| 11> Br      -0.261613   -2.102343    0.064683
| 12> O        2.449833    2.881230   -0.022028
| 13> O        2.868443   -0.722069   -2.296753
| 14> O        3.210599   -0.792996    1.955405
| 15> C       -1.539667    1.495797    1.625423
| 16> C       -0.428781    0.920088    1.558456
| 17> C       -2.591644    1.677755   -0.408432
| 18> C       -3.343269    0.487162   -0.270226
| 19> O       -2.954237   -0.721219   -0.381568
| 20> O       -4.608112    0.658864    0.009021
| 21> C       -1.326616    1.715594   -1.019432
| 22> O       -0.664105    0.697605   -1.265770
| 23> H       -1.956019   -0.923705   -0.405218
| 24> C       -5.425994   -0.504251    0.214760
| 25> H       -6.403655   -0.115620    0.482117
| 26> H       -5.482311   -1.089893   -0.701194
| 27> H       -5.017526   -1.116193    1.017061
| 28> H        0.138084    0.692302    2.461523
| 29> H       -3.155110    2.594425   -0.305352
| 30> H       -2.375145    2.018826    2.037613
| 31> H       -0.897368    2.710605   -1.208716
| 32> *
| 33>
| 34> %maxcore 5000
| 35>
| 36> %pal
| 37> nprocs = 24
| 38> end
| 39>
| 40>
| 41>                          ****END OF INPUT****

CARTESIAN COORDINATES (ANGSTROEM)
---------------------------------
  Re     1.075850    0.159419    0.019780
  C      2.196750   -0.403878   -1.423482
  C      2.402994   -0.436307    1.215711
  C      1.922458    1.855293   -0.011396
  Br    -0.261613   -2.102343    0.064683
  O      2.449833    2.881230   -0.022028
  O      2.868443   -0.722069   -2.296753
  O      3.210599   -0.792996    1.955405
  C     -1.539667    1.495797    1.625423
  C     -0.428781    0.920088    1.558456
  C     -2.591644    1.677755   -0.408432
  C     -3.343269    0.487162   -0.270226
  O     -2.954237   -0.721219   -0.381568
  O     -4.608112    0.658864    0.009021
  C     -1.326616    1.715594   -1.019432
  O     -0.664105    0.697605   -1.265770
  H     -1.956019   -0.923705   -0.405218
  C     -5.425994   -0.504251    0.214760
  H     -6.403655   -0.115620    0.482117
  H     -5.482311   -1.089893   -0.701194
  H     -5.017526   -1.116193    1.017061
  H      0.138084    0.692302    2.461523
  H     -3.155110    2.594425   -0.305352
  H     -2.375145    2.018826    2.037613
  H     -0.897368    2.710605   -1.208716

 Total Charge           Charge          ....    0
 Multiplicity           Mult            ....    1
 Number of Electrons    NEL             ....  160
 Basis Dimension        Dim             ....  825

ORBITAL ENERGIES
----------------

  NO   OCC          E(Eh)            E(eV)
   0   2.0000    -483.120987    -13146.3904
   1   2.0000     -62.753074     -1707.5980
   2   2.0000     -56.460480     -1536.3678
   3   2.0000     -56.459474     -1536.3404
   4   2.0000     -56.459019     -1536.3280
   5   2.0000     -19.327683      -525.9330
   6   2.0000     -19.308213      -525.4032
   7   2.0000     -19.258241      -524.0434
   8   2.0000     -19.252300      -523.8817
   9   2.0000     -19.250165      -523.8236
  10   2.0000     -19.242252      -523.6083
  11   2.0000     -10.449795      -284.3534
  12   2.0000     -10.364749      -282.0392
  13   2.0000     -10.339425      -281.3501
  14   2.0000     -10.330668      -281.1118
  15   2.0000     -10.327112      -281.0150
  16   2.0000     -10.325938      -280.9831
  17   2.0000     -10.312972      -280.6302
  18   2.0000     -10.285669      -279.8873
  19   2.0000     -10.265193      -279.3301
  20   2.0000      -8.789251      -239.1677
  21   2.0000      -6.564309      -178.6239
  22   2.0000      -6.561104      -178.5367
  23   2.0000      -6.559720      -178.4990
  24   2.0000      -3.169722       -86.2525
  25   2.0000      -2.624191       -71.4079
  26   2.0000      -2.623590       -71.3915
  27   2.0000      -2.622418       -71.3596
  28   2.0000      -2.619858       -71.2900
  29   2.0000      -2.619793       -71.2882
  30   2.0000      -1.755362       -47.7658
  31   2.0000      -1.749935       -47.6182
  32   2.0000      -1.748933       -47.5909
  33   2.0000      -1.219543       -33.1854
  34   2.0000      -1.138086       -30.9689
  35   2.0000      -1.128095       -30.6970
  36   2.0000      -1.121586       -30.5199
  37   2.0000      -1.119824       -30.4719
  38   2.0000      -1.104991       -30.0683
  39   2.0000      -0.862186       -23.4613
  40   2.0000      -0.810066       -22.0430
  41   2.0000      -0.785055       -21.3624
  42   2.0000      -0.739318       -20.1179
  43   2.0000      -0.699773       -19.0418
  44   2.0000      -0.675903       -18.3923
  45   2.0000      -0.616267       -16.7695
  46   2.0000      -0.614225       -16.7139
  47   2.0000      -0.583474       -15.8771
  48   2.0000      -0.570446       -15.5226
  49   2.0000      -0.561893       -15.2899
  50   2.0000      -0.557634       -15.1740
  51   2.0000      -0.551502       -15.0071
  52   2.0000      -0.546466       -14.8701
  53   2.0000      -0.521656       -14.1950
  54   2.0000      -0.503114       -13.6904
  55   2.0000      -0.500387       -13.6162
  56   2.0000      -0.486867       -13.2483
  57   2.0000      -0.476861       -12.9760
  58   2.0000      -0.468087       -12.7373
  59   2.0000      -0.464094       -12.6287
  60   2.0000      -0.462862       -12.5951
  61   2.0000      -0.458250       -12.4696
  62   2.0000      -0.454872       -12.3777
  63   2.0000      -0.446385       -12.1467
  64   2.0000      -0.441606       -12.0167
  65   2.0000      -0.441278       -12.0078
  66   2.0000      -0.438811       -11.9407
  67   2.0000      -0.434311       -11.8182
  68   2.0000      -0.432549       -11.7702
  69   2.0000      -0.405652       -11.0383
  70   2.0000      -0.361294        -9.8313
  71   2.0000      -0.352992        -9.6054
  72   2.0000      -0.336707        -9.1623
  73   2.0000      -0.308750        -8.4015
  74   2.0000      -0.300026        -8.1641
  75   2.0000      -0.283514        -7.7148
  76   2.0000      -0.278995        -7.5918
  77   2.0000      -0.240925        -6.5559
  78   2.0000      -0.235265        -6.4019
  79   2.0000      -0.228893        -6.2285
  80   0.0000      -0.094081        -2.5601
  81   0.0000      -0.084914        -2.3106
  82   0.0000      -0.054933        -1.4948
  83   0.0000      -0.039080        -1.0634
  84   0.0000      -0.032359        -0.8805

MULLIKEN ATOMIC CHARGES
-----------------------
   0 Re:    1.135831
   1 C :    0.611373
   2 C :    0.360177
   3 C :    0.150424
   4 Br:   -0.846764
   5 O :   -0.579913
   6 O :   -0.554536
   7 O :   -0.568934
   8 C :    0.049165
   9 C :   -1.215812
  10 C :   -0.207757
  11 C :    0.616276
  12 O :   -0.523482
  13 O :   -0.488507
  14 C :   -0.404757
  15 O :   -0.675039
  16 H :    0.487477
  17 C :   -1.396724
  18 H :    0.483813
  19 H :    0.572338
  20 H :    0.577991
  21 H :    0.369382
  22 H :    0.668856
  23 H :    0.828601
  24 H :    0.550522
Sum of atomic charges:   -0.0000000

LOEWDIN ATOMIC CHARGES
----------------------
   0 Re:    0.547621
   1 C :   -0.272624
   2 C :   -0.327427
   3 C :   -0.272334
   4 Br:    0.228452
   5 O :    0.074506
   6 O :    0.100338
   7 O :    0.081762
   8 C :    0.193912
   9 C :   -0.059991
  10 C :    0.033000
  11 C :   -0.341853
  12 O :    0.305394
  13 O :    0.046093
  14 C :   -0.190364
  15 O :   -0.144482
  16 H :   -0.298870
  17 C :    0.206399
  18 H :    0.019296
  19 H :    0.022946
  20 H :    0.023541
  21 H :   -0.027467
  22 H :    0.026842
  23 H :   -0.028570
  24 H :    0.053880

  Mayer bond orders larger than 0.100000
B(  0-Re,  1-C ) :   1.1964 B(  0-Re,  2-C ) :   1.2046 B(  0-Re,  3-C ) :   1.0788
B(  0-Re, 15-O ) :   0.3617 B(  1-C ,  2-C ) :  -0.1768 B(  1-C ,  6-O ) :   1.6350
B(  1-C ,  8-C ) :   0.1069 B(  1-C ,  9-C ) :  -0.1253 B(  1-C , 15-O ) :   0.1294
B(  2-C ,  4-Br) :   0.1362 B(  2-C ,  7-O ) :   1.6142 B(  2-C ,  9-C ) :   0.1029
B(  3-C ,  5-O ) :   1.6428 B(  4-Br,  9-C ) :   0.1178 B(  4-Br, 15-O ) :   0.1088
B(  8-C ,  9-C ) :   1.7324 B(  8-C , 10-C ) :  -0.1508 B(  8-C , 11-C ) :   0.1433
B(  8-C , 14-C ) :   0.1214 B(  8-C , 23-H ) :   0.3386 B(  9-C , 10-C ) :  -0.1563
B(  9-C , 11-C ) :   0.1846 B(  9-C , 21-H ) :   1.1700 B( 10-C , 11-C ) :   0.5801
B( 10-C , 14-C ) :   0.6407 B( 10-C , 15-O ) :  -0.1651 B( 10-C , 22-H ) :   0.6725
B( 11-C , 12-O ) :   1.0031 B( 11-C , 13-O ) :   0.8705 B( 11-C , 14-C ) :   0.3511
B( 11-C , 15-O ) :   0.1646 B( 11-C , 17-C ) :  -0.1828 B( 12-O , 16-H ) :   0.5957
B( 13-O , 17-C ) :   0.5369 B( 14-C , 15-O ) :   1.6101 B( 14-C , 24-H ) :   0.7683
B( 17-C , 18-H ) :   0.7969 B( 17-C , 19-H ) :   0.6956 B( 17-C , 20-H ) :   0.6710

Dispersion correction           -0.004846455
FINAL SINGLE POINT ENERGY     -3451.381371408084

DIPOLE MOMENT
-------------
                                X             Y             Z
Electronic contribution:    156.42615       7.14561       1.57927
Nuclear contribution   :   -160.68759      -5.62073      -0.99353
                        -----------------------------------------
Total Dipole Moment    :     -4.26144       1.52488       0.58574
                        -----------------------------------------
Magnitude (a.u.)       :      4.56380
Magnitude (Debye)      :     11.60025

Rotational constants in cm-1:     0.016566     0.007303     0.006214
Rotational constants in MHz :   496.645586   218.925333   186.291690

                             ****ORCA TERMINATED NORMALLY****
TOTAL RUN TIME: 0 days 0 hours 6 minutes 1 seconds 121 msec
