                         Program Version 4.2.0 -  RELEASE  -
|  1> #
|  2> # TMB28_T1 M06-D3/Def2-TZVPPD
|  3> #
|  4> ! m06 d3zero def2-tzvppd def2/jk grid4 nofinalgrid
|  5>
|  6> *xyz 0 1
|  7> C       -0.472087   -1.270184   -0.544262
|  8> C       -1.371263   -0.408913   -0.410763
|  9> C       -0.283188   -2.679486   -0.928311
| 10> H       -1.250337   -3.132270   -1.147533
| 11> H        0.355340   -2.736203   -1.811412
| 12> H        0.207850   -3.220295   -0.118359
| 13> C       -2.087605    0.860649   -0.268000
| 14> O       -3.384272    0.602181    0.322954
| 15> C       -3.916162   -0.562532   -0.037107
| 16> O       -3.286397   -1.359772   -0.698080
| 17> C       -1.360806    1.791956    0.779385
| 18> O       -0.796250    2.763376    0.375084
| 19> C       -1.472551    1.401357    2.216606
| 20> H       -1.203914    0.352090    2.355444
| 21> H       -0.810137    2.031512    2.804683
| 22> H       -2.503869    1.535124    2.549793
| 23> C       -5.307153   -0.755812    0.455050
| 24> H       -5.663745   -1.741165    0.170882
| 25> H       -5.328847   -0.642840    1.539841
| 26> H       -5.952574    0.015643    0.032531
| 27> C       -2.259938    1.568911   -1.595082
| 28> H       -2.813189    2.495499   -1.446777
| 29> H       -1.275651    1.804221   -1.997337
| 30> H       -2.786554    0.924255   -2.298279
| 31> Au       1.278819   -0.204328   -0.045979
| 32> Cl       1.126476   -1.118462    2.051374
| 33> Cl       3.319842    0.694072    0.431966
| 34> Cl       1.372434    0.585236   -2.189571
| 35> *
| 36>
| 37> %maxcore 5000
| 38>
| 39> %pal
| 40> nprocs = 24
| 41> end
| 42>
| 43>
| 44>                          ****END OF INPUT****

CARTESIAN COORDINATES (ANGSTROEM)
---------------------------------
  C     -0.472087   -1.270184   -0.544262
  C     -1.371263   -0.408913   -0.410763
  C     -0.283188   -2.679486   -0.928311
  H     -1.250337   -3.132270   -1.147533
  H      0.355340   -2.736203   -1.811412
  H      0.207850   -3.220295   -0.118359
  C     -2.087605    0.860649   -0.268000
  O     -3.384272    0.602181    0.322954
  C     -3.916162   -0.562532   -0.037107
  O     -3.286397   -1.359772   -0.698080
  C     -1.360806    1.791956    0.779385
  O     -0.796250    2.763376    0.375084
  C     -1.472551    1.401357    2.216606
  H     -1.203914    0.352090    2.355444
  H     -0.810137    2.031512    2.804683
  H     -2.503869    1.535124    2.549793
  C     -5.307153   -0.755812    0.455050
  H     -5.663745   -1.741165    0.170882
  H     -5.328847   -0.642840    1.539841
  H     -5.952574    0.015643    0.032531
  C     -2.259938    1.568911   -1.595082
  H     -2.813189    2.495499   -1.446777
  H     -1.275651    1.804221   -1.997337
  H     -2.786554    0.924255   -2.298279
  Au     1.278819   -0.204328   -0.045979
  Cl     1.126476   -1.118462    2.051374
  Cl     3.319842    0.694072    0.431966
  Cl     1.372434    0.585236   -2.189571

 Total Charge           Charge          ....    0
 Multiplicity           Mult            ....    1
 Number of Electrons    NEL             ....  160
 Basis Dimension        Dim             ....  869

ORBITAL ENERGIES
----------------

  NO   OCC          E(Eh)            E(eV)
   0   2.0000    -101.686766     -2767.0376
   1   2.0000    -101.684792     -2766.9839
   2   2.0000    -101.674459     -2766.7027
   3   2.0000     -19.321612      -525.7678
   4   2.0000     -19.270274      -524.3708
   5   2.0000     -19.243456      -523.6411
   6   2.0000     -10.433450      -283.9086
   7   2.0000     -10.382625      -282.5256
   8   2.0000     -10.373741      -282.2838
   9   2.0000     -10.340091      -281.3682
  10   2.0000     -10.312886      -280.6279
  11   2.0000     -10.292932      -280.0849
  12   2.0000     -10.276769      -279.6451
  13   2.0000     -10.262135      -279.2469
  14   2.0000     -10.260362      -279.1986
  15   2.0000      -9.561830      -260.1906
  16   2.0000      -9.559735      -260.1336
  17   2.0000      -9.549253      -259.8484
  18   2.0000      -7.269600      -197.8159
  19   2.0000      -7.267681      -197.7637
  20   2.0000      -7.262811      -197.6311
  21   2.0000      -7.262379      -197.6194
  22   2.0000      -7.260665      -197.5728
  23   2.0000      -7.260186      -197.5597
  24   2.0000      -7.257653      -197.4908
  25   2.0000      -7.250056      -197.2841
  26   2.0000      -7.249406      -197.2664
  27   2.0000      -4.258857      -115.8894
  28   2.0000      -2.447004       -66.5864
  29   2.0000      -2.445156       -66.5361
  30   2.0000      -2.425358       -65.9973
  31   2.0000      -1.206756       -32.8375
  32   2.0000      -1.117183       -30.4001
  33   2.0000      -1.108171       -30.1549
  34   2.0000      -0.895632       -24.3714
  35   2.0000      -0.845687       -23.0123
  36   2.0000      -0.814541       -22.1648
  37   2.0000      -0.810537       -22.0558
  38   2.0000      -0.799476       -21.7549
  39   2.0000      -0.792116       -21.5546
  40   2.0000      -0.790893       -21.5213
  41   2.0000      -0.755624       -20.5616
  42   2.0000      -0.712512       -19.3884
  43   2.0000      -0.664960       -18.0945
  44   2.0000      -0.625428       -17.0188
  45   2.0000      -0.578022       -15.7288
  46   2.0000      -0.558410       -15.1951
  47   2.0000      -0.549995       -14.9661
  48   2.0000      -0.529999       -14.4220
  49   2.0000      -0.518384       -14.1060
  50   2.0000      -0.508661       -13.8414
  51   2.0000      -0.495680       -13.4881
  52   2.0000      -0.487251       -13.2588
  53   2.0000      -0.482234       -13.1223
  54   2.0000      -0.477048       -12.9811
  55   2.0000      -0.469526       -12.7765
  56   2.0000      -0.466776       -12.7016
  57   2.0000      -0.461344       -12.5538
  58   2.0000      -0.453543       -12.3415
  59   2.0000      -0.445881       -12.1330
  60   2.0000      -0.444285       -12.0896
  61   2.0000      -0.437786       -11.9128
  62   2.0000      -0.431488       -11.7414
  63   2.0000      -0.427714       -11.6387
  64   2.0000      -0.417467       -11.3599
  65   2.0000      -0.414676       -11.2839
  66   2.0000      -0.410704       -11.1758
  67   2.0000      -0.393456       -10.7065
  68   2.0000      -0.387623       -10.5477
  69   2.0000      -0.363567        -9.8932
  70   2.0000      -0.354068        -9.6347
  71   2.0000      -0.340716        -9.2713
  72   2.0000      -0.330203        -8.9853
  73   2.0000      -0.319559        -8.6957
  74   2.0000      -0.307122        -8.3572
  75   2.0000      -0.296239        -8.0611
  76   2.0000      -0.288581        -7.8527
  77   2.0000      -0.285777        -7.7764
  78   2.0000      -0.283705        -7.7200
  79   2.0000      -0.276071        -7.5123
  80   0.0000      -0.140355        -3.8192
  81   0.0000      -0.072155        -1.9634
  82   0.0000      -0.053962        -1.4684
  83   0.0000      -0.050042        -1.3617
  84   0.0000      -0.036000        -0.9796

MULLIKEN ATOMIC CHARGES
-----------------------
   0 C :    0.710054
   1 C :   -1.483513
   2 C :   -2.067461
   3 H :    0.652659
   4 H :    0.529928
   5 H :    0.530577
   6 C :    4.057850
   7 O :   -0.564715
   8 C :    1.548173
   9 O :   -0.704296
  10 C :    0.534045
  11 O :   -0.688741
  12 C :   -2.382061
  13 H :    0.498974
  14 H :    0.767981
  15 H :    0.592704
  16 C :   -2.354712
  17 H :    0.668255
  18 H :    0.588332
  19 H :    0.571486
  20 C :   -3.101075
  21 H :    0.715055
  22 H :    0.571033
  23 H :    0.809404
  24 Au:    0.552071
  25 Cl:   -0.553473
  26 Cl:   -0.466081
  27 Cl:   -0.532452
Sum of atomic charges:   -0.0000000

LOEWDIN ATOMIC CHARGES
----------------------
   0 C :   -0.314805
   1 C :    0.041492
   2 C :    0.135523
   3 H :    0.000438
   4 H :    0.001331
   5 H :   -0.010595
   6 C :   -0.335678
   7 O :    0.073076
   8 C :   -0.421882
   9 O :    0.131763
  10 C :   -0.316145
  11 O :    0.131827
  12 C :    0.208266
  13 H :   -0.043060
  14 H :    0.014470
  15 H :    0.008963
  16 C :    0.259078
  17 H :    0.010556
  18 H :    0.015540
  19 H :    0.016190
  20 C :    0.220894
  21 H :    0.020092
  22 H :   -0.017575
  23 H :    0.017186
  24 Au:    0.284633
  25 Cl:   -0.009635
  26 Cl:   -0.110811
  27 Cl:   -0.011131

  Mayer bond orders larger than 0.100000
B(  0-C ,  1-C ) :  -0.3671 B(  0-C ,  2-C ) :  -0.2375 B(  0-C ,  4-H ) :  -0.1647
B(  0-C ,  5-H ) :  -0.1615 B(  0-C ,  6-C ) :   0.1705 B(  0-C ,  9-O ) :  -0.1168
B(  0-C , 10-C ) :  -0.2374 B(  0-C , 24-Au) :   0.2225 B(  0-C , 25-Cl) :   0.4751
B(  0-C , 27-Cl) :   0.6810 B(  1-C ,  6-C ) :  -2.5545 B(  1-C ,  7-O ) :  -0.1476
B(  1-C ,  9-O ) :   0.2322 B(  1-C , 10-C ) :   0.5988 B(  1-C , 11-O ) :  -0.1162
B(  1-C , 12-C ) :   0.2796 B(  1-C , 20-C ) :   0.4783 B(  1-C , 24-Au) :   0.4847
B(  1-C , 25-Cl) :  -0.6234 B(  1-C , 27-Cl) :  -0.7379 B(  2-C ,  3-H ) :   0.5750
B(  2-C ,  4-H ) :   0.8491 B(  2-C ,  5-H ) :   0.8666 B(  2-C ,  6-C ) :   0.1341
B(  2-C , 24-Au) :  -0.1263 B(  3-H ,  5-H ) :   0.1076 B(  6-C ,  7-O ) :   0.6124
B(  6-C , 10-C ) :  -0.1223 B(  6-C , 12-C ) :  -0.4236 B(  6-C , 20-C ) :  -1.5452
B(  6-C , 22-H ) :  -0.3735 B(  7-O ,  8-C ) :   0.7984 B(  7-O ,  9-O ) :   0.1130
B(  7-O , 10-C ) :   0.1255 B(  7-O , 20-C ) :   0.2214 B(  8-C ,  9-O ) :   1.4869
B(  8-C , 16-C ) :  -0.1950 B(  8-C , 18-H ) :  -0.1088 B(  8-C , 19-H ) :  -0.1516
B(  8-C , 20-C ) :  -0.1099 B( 10-C , 11-O ) :   1.6337 B( 10-C , 13-H ) :  -0.2765
B( 10-C , 15-H ) :  -0.1256 B( 12-C , 13-H ) :   0.9486 B( 12-C , 14-H ) :   0.4552
B( 12-C , 15-H ) :   0.8208 B( 14-H , 15-H ) :   0.1034 B( 16-C , 17-H ) :   0.6255
B( 16-C , 18-H ) :   0.7586 B( 16-C , 19-H ) :   0.8132 B( 20-C , 21-H ) :   0.5953
B( 20-C , 22-H ) :   1.0764 B( 20-C , 23-H ) :   0.3648 B( 21-H , 22-H ) :   0.1349
B( 22-H , 23-H ) :   0.1022 B( 24-Au, 25-Cl) :   0.8923 B( 24-Au, 26-Cl) :   0.6263
B( 24-Au, 27-Cl) :   0.8581 B( 25-Cl, 27-Cl) :   0.1430

Dispersion correction           -0.006361323
FINAL SINGLE POINT ENERGY     -2092.091689604561

DIPOLE MOMENT
-------------
                                X             Y             Z
Electronic contribution:    196.29449     -27.63373      -6.37983
Nuclear contribution   :   -200.70985      26.65253       6.49371
                        -----------------------------------------
Total Dipole Moment    :     -4.41536      -0.98120       0.11389
                        -----------------------------------------
Magnitude (a.u.)       :      4.52451
Magnitude (Debye)      :     11.50038

Rotational constants in cm-1:     0.016870     0.006757     0.006678
Rotational constants in MHz :   505.750873   202.581775   200.209050

                             ****ORCA TERMINATED NORMALLY****
TOTAL RUN TIME: 0 days 0 hours 8 minutes 28 seconds 75 msec
