                         Program Version 4.2.0 -  RELEASE  -
|  1> #
|  2> # TMB28_C1 M06-D3/Def2-TZVPPD
|  3> #
|  4> ! m06 d3zero def2-tzvppd def2/jk grid4 nofinalgrid
|  5>
|  6> *xyz 0 1
|  7> C       -0.405710    1.676464   -0.132905
|  8> C       -0.911585    0.669613    0.356254
|  9> C       -0.058307    2.983711   -0.650101
| 10> H       -0.949750    3.612259   -0.580916
| 11> H        0.745323    3.420879   -0.056180
| 12> H        0.255303    2.923577   -1.693087
| 13> C       -1.922079   -0.256189    0.903797
| 14> O       -2.980737   -0.448274   -0.040247
| 15> C       -3.644467    0.620195   -0.535863
| 16> O       -3.419291    1.755394   -0.218963
| 17> C       -1.315036   -1.659397    1.187254
| 18> O       -0.292489   -1.714090    1.813533
| 19> C       -2.070337   -2.858032    0.718520
| 20> H       -2.050973   -2.878590   -0.373534
| 21> H       -1.593281   -3.749478    1.117849
| 22> H       -3.118661   -2.810283    1.017394
| 23> C       -4.664667    0.177679   -1.534856
| 24> H       -5.268795    1.028888   -1.835351
| 25> H       -4.153929   -0.239550   -2.404894
| 26> H       -5.293840   -0.608504   -1.117133
| 27> C       -2.442836    0.266886    2.244835
| 28> H       -3.205737   -0.415249    2.624458
| 29> H       -1.614369    0.303689    2.950542
| 30> H       -2.869838    1.259004    2.124200
| 31> Au       1.189623    0.069390   -0.174295
| 32> Cl       0.186320   -1.092349   -1.885264
| 33> Cl       3.146088   -1.001725   -0.550079
| 34> Cl       2.155158    1.282412    1.507095
| 35> *
| 36>
| 37> %maxcore 5000
| 38>
| 39> %pal
| 40> nprocs = 24
| 41> end
| 42>
| 43>
| 44>                          ****END OF INPUT****

CARTESIAN COORDINATES (ANGSTROEM)
---------------------------------
  C     -0.405710    1.676464   -0.132905
  C     -0.911585    0.669613    0.356254
  C     -0.058307    2.983711   -0.650101
  H     -0.949750    3.612259   -0.580916
  H      0.745323    3.420879   -0.056180
  H      0.255303    2.923577   -1.693087
  C     -1.922079   -0.256189    0.903797
  O     -2.980737   -0.448274   -0.040247
  C     -3.644467    0.620195   -0.535863
  O     -3.419291    1.755394   -0.218963
  C     -1.315036   -1.659397    1.187254
  O     -0.292489   -1.714090    1.813533
  C     -2.070337   -2.858032    0.718520
  H     -2.050973   -2.878590   -0.373534
  H     -1.593281   -3.749478    1.117849
  H     -3.118661   -2.810283    1.017394
  C     -4.664667    0.177679   -1.534856
  H     -5.268795    1.028888   -1.835351
  H     -4.153929   -0.239550   -2.404894
  H     -5.293840   -0.608504   -1.117133
  C     -2.442836    0.266886    2.244835
  H     -3.205737   -0.415249    2.624458
  H     -1.614369    0.303689    2.950542
  H     -2.869838    1.259004    2.124200
  Au     1.189623    0.069390   -0.174295
  Cl     0.186320   -1.092349   -1.885264
  Cl     3.146088   -1.001725   -0.550079
  Cl     2.155158    1.282412    1.507095

 Total Charge           Charge          ....    0
 Multiplicity           Mult            ....    1
 Number of Electrons    NEL             ....  160
 Basis Dimension        Dim             ....  869

ORBITAL ENERGIES
----------------

  NO   OCC          E(Eh)            E(eV)
   0   2.0000    -101.694200     -2767.2399
   1   2.0000    -101.690490     -2767.1389
   2   2.0000    -101.688536     -2767.0857
   3   2.0000     -19.294450      -525.0287
   4   2.0000     -19.233446      -523.3687
   5   2.0000     -19.230115      -523.2780
   6   2.0000     -10.404417      -283.1186
   7   2.0000     -10.377125      -282.3759
   8   2.0000     -10.365963      -282.0722
   9   2.0000     -10.330447      -281.1058
  10   2.0000     -10.318400      -280.7779
  11   2.0000     -10.289905      -280.0025
  12   2.0000     -10.268230      -279.4127
  13   2.0000     -10.268205      -279.4121
  14   2.0000     -10.258499      -279.1480
  15   2.0000      -9.569203      -260.3913
  16   2.0000      -9.565406      -260.2879
  17   2.0000      -9.563214      -260.2283
  18   2.0000      -7.277046      -198.0185
  19   2.0000      -7.273608      -197.9249
  20   2.0000      -7.271936      -197.8794
  21   2.0000      -7.270204      -197.8323
  22   2.0000      -7.269675      -197.8179
  23   2.0000      -7.266187      -197.7230
  24   2.0000      -7.265759      -197.7114
  25   2.0000      -7.263919      -197.6613
  26   2.0000      -7.263172      -197.6410
  27   2.0000      -4.272804      -116.2689
  28   2.0000      -2.461562       -66.9825
  29   2.0000      -2.458605       -66.9020
  30   2.0000      -2.438644       -66.3589
  31   2.0000      -1.170278       -31.8449
  32   2.0000      -1.106701       -30.1149
  33   2.0000      -1.083181       -29.4749
  34   2.0000      -0.889073       -24.1929
  35   2.0000      -0.849795       -23.1241
  36   2.0000      -0.821960       -22.3667
  37   2.0000      -0.805902       -21.9297
  38   2.0000      -0.804625       -21.8950
  39   2.0000      -0.790676       -21.5154
  40   2.0000      -0.788012       -21.4429
  41   2.0000      -0.770998       -20.9799
  42   2.0000      -0.714177       -19.4337
  43   2.0000      -0.646119       -17.5818
  44   2.0000      -0.615323       -16.7438
  45   2.0000      -0.545689       -14.8489
  46   2.0000      -0.542676       -14.7670
  47   2.0000      -0.534684       -14.5495
  48   2.0000      -0.528878       -14.3915
  49   2.0000      -0.510872       -13.9015
  50   2.0000      -0.507053       -13.7976
  51   2.0000      -0.495469       -13.4824
  52   2.0000      -0.489822       -13.3287
  53   2.0000      -0.478695       -13.0260
  54   2.0000      -0.477033       -12.9807
  55   2.0000      -0.468098       -12.7376
  56   2.0000      -0.464166       -12.6306
  57   2.0000      -0.457049       -12.4369
  58   2.0000      -0.452802       -12.3214
  59   2.0000      -0.448705       -12.2099
  60   2.0000      -0.446933       -12.1617
  61   2.0000      -0.440665       -11.9911
  62   2.0000      -0.438922       -11.9437
  63   2.0000      -0.424957       -11.5637
  64   2.0000      -0.420967       -11.4551
  65   2.0000      -0.411951       -11.2098
  66   2.0000      -0.406231       -11.0541
  67   2.0000      -0.374802       -10.1989
  68   2.0000      -0.367467        -9.9993
  69   2.0000      -0.362936        -9.8760
  70   2.0000      -0.362419        -9.8619
  71   2.0000      -0.334967        -9.1149
  72   2.0000      -0.327529        -8.9125
  73   2.0000      -0.322555        -8.7772
  74   2.0000      -0.310531        -8.4500
  75   2.0000      -0.298834        -8.1317
  76   2.0000      -0.297029        -8.0826
  77   2.0000      -0.295764        -8.0481
  78   2.0000      -0.291864        -7.9420
  79   2.0000      -0.283998        -7.7280
  80   0.0000      -0.139340        -3.7916
  81   0.0000      -0.055713        -1.5160
  82   0.0000      -0.048690        -1.3249
  83   0.0000      -0.043903        -1.1947
  84   0.0000      -0.032332        -0.8798

MULLIKEN ATOMIC CHARGES
-----------------------
   0 C :    1.903358
   1 C :   -2.827047
   2 C :   -1.863284
   3 H :    0.537905
   4 H :    0.557919
   5 H :    0.528505
   6 C :    3.705217
   7 O :   -0.136252
   8 C :    1.466468
   9 O :   -0.656208
  10 C :    0.405954
  11 O :   -0.664795
  12 C :   -2.338332
  13 H :    0.526567
  14 H :    0.791960
  15 H :    0.530631
  16 C :   -2.484707
  17 H :    0.694343
  18 H :    0.553725
  19 H :    0.567269
  20 C :   -3.289473
  21 H :    0.718120
  22 H :    0.806686
  23 H :    0.810064
  24 Au:    0.583645
  25 Cl:   -0.506543
  26 Cl:   -0.408706
  27 Cl:   -0.512985
Sum of atomic charges:   -0.0000000

LOEWDIN ATOMIC CHARGES
----------------------
   0 C :   -0.173264
   1 C :   -0.113672
   2 C :    0.147775
   3 H :    0.015278
   4 H :   -0.012120
   5 H :    0.010269
   6 C :   -0.363048
   7 O :    0.026877
   8 C :   -0.446901
   9 O :    0.116673
  10 C :   -0.358207
  11 O :    0.078793
  12 C :    0.220355
  13 H :    0.001482
  14 H :    0.011296
  15 H :    0.008294
  16 C :    0.242709
  17 H :    0.005911
  18 H :    0.012799
  19 H :    0.007633
  20 C :    0.241923
  21 H :    0.021287
  22 H :    0.020579
  23 H :    0.005941
  24 Au:    0.321081
  25 Cl:    0.018448
  26 Cl:   -0.070187
  27 Cl:    0.001997

  Mayer bond orders larger than 0.100000
B(  0-C ,  1-C ) :  -0.9607 B(  0-C ,  2-C ) :  -0.6798 B(  0-C ,  6-C ) :   0.7767
B(  0-C ,  9-O ) :  -0.1420 B(  0-C , 10-C ) :  -1.0429 B(  0-C , 11-O ) :   0.1137
B(  0-C , 20-C ) :  -0.3141 B(  0-C , 21-H ) :   0.4077 B(  0-C , 24-Au) :   0.5379
B(  0-C , 27-Cl) :   0.2635 B(  1-C ,  2-C ) :   0.3647 B(  1-C ,  3-H ) :  -0.1853
B(  1-C ,  6-C ) :  -2.1104 B(  1-C ,  8-C ) :  -0.1776 B(  1-C ,  9-O ) :  -0.1172
B(  1-C , 10-C ) :   1.2185 B(  1-C , 20-C ) :   1.0470 B(  1-C , 21-H ) :  -0.2715
B(  1-C , 22-H ) :  -0.1132 B(  1-C , 24-Au) :   0.5742 B(  1-C , 25-Cl) :  -0.1673
B(  1-C , 26-Cl) :   0.1202 B(  1-C , 27-Cl) :  -0.5192 B(  2-C ,  3-H ) :   0.8739
B(  2-C ,  4-H ) :   0.8312 B(  2-C ,  5-H ) :   0.8594 B(  6-C ,  7-O ) :   0.7950
B(  6-C ,  9-O ) :   0.2272 B(  6-C , 10-C ) :  -0.4773 B(  6-C , 11-O ) :  -0.4936
B(  6-C , 12-C ) :   0.1277 B(  6-C , 20-C ) :  -1.4722 B(  6-C , 21-H ) :  -0.2242
B(  6-C , 24-Au) :  -0.2741 B(  6-C , 25-Cl) :   0.1880 B(  7-O ,  8-C ) :   0.9323
B(  7-O ,  9-O ) :   0.1207 B(  8-C ,  9-O ) :   1.4808 B(  8-C , 16-C ) :  -0.2378
B(  8-C , 18-H ) :  -0.1042 B(  8-C , 19-H ) :  -0.1688 B( 10-C , 11-O ) :   1.7778
B( 10-C , 12-C ) :  -0.2842 B( 10-C , 13-H ) :  -0.1869 B( 10-C , 15-H ) :  -0.1826
B( 10-C , 20-C ) :  -0.2593 B( 11-O , 12-C ) :   0.1515 B( 12-C , 13-H ) :   0.9335
B( 12-C , 14-H ) :   0.4105 B( 12-C , 15-H ) :   0.9175 B( 16-C , 17-H ) :   0.5742
B( 16-C , 18-H ) :   0.8325 B( 16-C , 19-H ) :   0.8625 B( 20-C , 21-H ) :   0.6507
B( 20-C , 22-H ) :   0.5640 B( 20-C , 23-H ) :   0.4216 B( 21-H , 22-H ) :   0.1137
B( 21-H , 23-H ) :   0.1305 B( 24-Au, 25-Cl) :   0.7935 B( 24-Au, 26-Cl) :   0.6207
B( 24-Au, 27-Cl) :   0.8043 B( 25-Cl, 27-Cl) :   0.1494

Dispersion correction           -0.006434190
FINAL SINGLE POINT ENERGY     -2092.097447814701

DIPOLE MOMENT
-------------
                                X             Y             Z
Electronic contribution:    184.89883       8.35770     -26.30248
Nuclear contribution   :   -188.12551      -7.68230      26.09317
                        -----------------------------------------
Total Dipole Moment    :     -3.22667       0.67540      -0.20931
                        -----------------------------------------
Magnitude (a.u.)       :      3.30324
Magnitude (Debye)      :      8.39617

Rotational constants in cm-1:     0.016324     0.007365     0.006921
Rotational constants in MHz :   489.388468   220.811279   207.480820

                             ****ORCA TERMINATED NORMALLY****
TOTAL RUN TIME: 0 days 0 hours 8 minutes 5 seconds 663 msec
