                         Program Version 4.2.0 -  RELEASE  -
|  1> #
|  2> # TMB26_T1 M06-D3/Def2-TZVPPD
|  3> #
|  4> ! m06 d3zero def2-tzvppd def2/jk grid4 nofinalgrid
|  5>
|  6> *xyz 0 1
|  7> C       -2.466566    1.069840    0.238308
|  8> C       -2.451721    0.070166    1.223311
|  9> C       -3.390268   -0.966147    1.168446
| 10> C       -4.328348   -1.022612    0.143865
| 11> C       -4.333048   -0.013813   -0.819144
| 12> C       -3.403006    1.027077   -0.774806
| 13> H       -1.851874    0.172622    2.118430
| 14> H       -5.044959   -1.827220    0.098719
| 15> H       -3.408268    1.764270   -1.566273
| 16> C       -1.433505    2.123552    0.250561
| 17> C       -1.778108    3.466931    0.185146
| 18> C       -0.064979    1.782593    0.286078
| 19> C       -0.802488    4.453319    0.169404
| 20> H       -2.826505    3.739000    0.161874
| 21> C        0.907771    2.775168    0.263672
| 22> C        0.538977    4.108677    0.211691
| 23> H       -1.095064    5.495288    0.125305
| 24> H        1.951961    2.493561    0.298441
| 25> H        1.301937    4.876538    0.199556
| 26> C        0.257789    0.377788    0.312230
| 27> C       -0.304042   -0.722217    0.502541
| 28> H       -0.515543   -1.762216    0.625327
| 29> Au       2.138195   -0.491597   -0.140080
| 30> Cl       1.419476   -1.043843   -2.240555
| 31> Cl       4.263347   -1.139807   -0.651257
| 32> Cl       2.780432    0.097050    1.979491
| 33> O       -3.309425   -1.870502    2.160546
| 34> O       -5.195970    0.025756   -1.845512
| 35> C       -4.244039   -2.927838    2.190952
| 36> H       -4.158173   -3.562934    1.304307
| 37> H       -4.005337   -3.514103    3.075014
| 38> H       -5.267556   -2.550903    2.273203
| 39> C       -6.143948   -1.010635   -1.979012
| 40> H       -6.717344   -0.779100   -2.873359
| 41> H       -5.656738   -1.981777   -2.105696
| 42> H       -6.818943   -1.047780   -1.118843
| 43> *
| 44>
| 45> %maxcore 5000
| 46>
| 47> %pal
| 48> nprocs = 24
| 49> end
| 50>
| 51>
| 52>                          ****END OF INPUT****

CARTESIAN COORDINATES (ANGSTROEM)
---------------------------------
  C     -2.466566    1.069840    0.238308
  C     -2.451721    0.070166    1.223311
  C     -3.390268   -0.966147    1.168446
  C     -4.328348   -1.022612    0.143865
  C     -4.333048   -0.013813   -0.819144
  C     -3.403006    1.027077   -0.774806
  H     -1.851874    0.172622    2.118430
  H     -5.044959   -1.827220    0.098719
  H     -3.408268    1.764270   -1.566273
  C     -1.433505    2.123552    0.250561
  C     -1.778108    3.466931    0.185146
  C     -0.064979    1.782593    0.286078
  C     -0.802488    4.453319    0.169404
  H     -2.826505    3.739000    0.161874
  C      0.907771    2.775168    0.263672
  C      0.538977    4.108677    0.211691
  H     -1.095064    5.495288    0.125305
  H      1.951961    2.493561    0.298441
  H      1.301937    4.876538    0.199556
  C      0.257789    0.377788    0.312230
  C     -0.304042   -0.722217    0.502541
  H     -0.515543   -1.762216    0.625327
  Au     2.138195   -0.491597   -0.140080
  Cl     1.419476   -1.043843   -2.240555
  Cl     4.263347   -1.139807   -0.651257
  Cl     2.780432    0.097050    1.979491
  O     -3.309425   -1.870502    2.160546
  O     -5.195970    0.025756   -1.845512
  C     -4.244039   -2.927838    2.190952
  H     -4.158173   -3.562934    1.304307
  H     -4.005337   -3.514103    3.075014
  H     -5.267556   -2.550903    2.273203
  C     -6.143948   -1.010635   -1.979012
  H     -6.717344   -0.779100   -2.873359
  H     -5.656738   -1.981777   -2.105696
  H     -6.818943   -1.047780   -1.118843

 Total Charge           Charge          ....    0
 Multiplicity           Mult            ....    1
 Number of Electrons    NEL             ....  196
 Basis Dimension        Dim             .... 1122

ORBITAL ENERGIES
----------------

  NO   OCC          E(Eh)            E(eV)
   0   2.0000    -101.677316     -2766.7804
   1   2.0000    -101.676492     -2766.7580
   2   2.0000    -101.670239     -2766.5878
   3   2.0000     -19.281170      -524.6673
   4   2.0000     -19.278767      -524.6019
   5   2.0000     -10.341460      -281.4054
   6   2.0000     -10.340914      -281.3906
   7   2.0000     -10.322626      -280.8929
   8   2.0000     -10.319249      -280.8010
   9   2.0000     -10.317382      -280.7502
  10   2.0000     -10.307488      -280.4810
  11   2.0000     -10.291306      -280.0407
  12   2.0000     -10.288127      -279.9542
  13   2.0000     -10.284608      -279.8584
  14   2.0000     -10.267479      -279.3923
  15   2.0000     -10.267379      -279.3896
  16   2.0000     -10.266428      -279.3637
  17   2.0000     -10.265931      -279.3502
  18   2.0000     -10.264896      -279.3220
  19   2.0000     -10.262581      -279.2590
  20   2.0000     -10.256707      -279.0992
  21   2.0000      -9.552286      -259.9309
  22   2.0000      -9.551441      -259.9079
  23   2.0000      -9.545069      -259.7345
  24   2.0000      -7.260194      -197.5599
  25   2.0000      -7.259428      -197.5391
  26   2.0000      -7.253389      -197.3747
  27   2.0000      -7.253260      -197.3712
  28   2.0000      -7.252719      -197.3565
  29   2.0000      -7.252425      -197.3485
  30   2.0000      -7.251789      -197.3312
  31   2.0000      -7.245963      -197.1727
  32   2.0000      -7.245198      -197.1519
  33   2.0000      -4.254573      -115.7728
  34   2.0000      -2.442684       -66.4688
  35   2.0000      -2.440388       -66.4063
  36   2.0000      -2.421342       -65.8881
  37   2.0000      -1.135214       -30.8907
  38   2.0000      -1.132983       -30.8300
  39   2.0000      -0.924693       -25.1622
  40   2.0000      -0.896075       -24.3834
  41   2.0000      -0.853003       -23.2114
  42   2.0000      -0.823206       -22.4006
  43   2.0000      -0.811939       -22.0940
  44   2.0000      -0.806006       -21.9326
  45   2.0000      -0.790367       -21.5070
  46   2.0000      -0.788209       -21.4483
  47   2.0000      -0.782987       -21.3062
  48   2.0000      -0.771205       -20.9855
  49   2.0000      -0.763473       -20.7752
  50   2.0000      -0.726436       -19.7673
  51   2.0000      -0.676236       -18.4013
  52   2.0000      -0.663259       -18.0482
  53   2.0000      -0.646394       -17.5893
  54   2.0000      -0.625204       -17.0127
  55   2.0000      -0.602257       -16.3882
  56   2.0000      -0.589646       -16.0451
  57   2.0000      -0.561120       -15.2688
  58   2.0000      -0.555977       -15.1289
  59   2.0000      -0.534745       -14.5511
  60   2.0000      -0.531487       -14.4625
  61   2.0000      -0.524670       -14.2770
  62   2.0000      -0.516542       -14.0558
  63   2.0000      -0.512968       -13.9586
  64   2.0000      -0.510811       -13.8999
  65   2.0000      -0.486002       -13.2248
  66   2.0000      -0.475799       -12.9472
  67   2.0000      -0.473577       -12.8867
  68   2.0000      -0.466271       -12.6879
  69   2.0000      -0.461940       -12.5700
  70   2.0000      -0.456274       -12.4158
  71   2.0000      -0.454889       -12.3781
  72   2.0000      -0.436638       -11.8815
  73   2.0000      -0.427639       -11.6367
  74   2.0000      -0.426245       -11.5987
  75   2.0000      -0.423444       -11.5225
  76   2.0000      -0.418414       -11.3856
  77   2.0000      -0.416237       -11.3264
  78   2.0000      -0.399145       -10.8613
  79   2.0000      -0.396527       -10.7900
  80   2.0000      -0.391760       -10.6603
  81   2.0000      -0.383929       -10.4472
  82   2.0000      -0.379218       -10.3190
  83   2.0000      -0.374160       -10.1814
  84   2.0000      -0.364401        -9.9159
  85   2.0000      -0.354531        -9.6473
  86   2.0000      -0.344242        -9.3673
  87   2.0000      -0.331190        -9.0121
  88   2.0000      -0.312427        -8.5016
  89   2.0000      -0.303617        -8.2618
  90   2.0000      -0.295358        -8.0371
  91   2.0000      -0.287494        -7.8231
  92   2.0000      -0.281934        -7.6718
  93   2.0000      -0.280389        -7.6298
  94   2.0000      -0.276768        -7.5312
  95   2.0000      -0.273380        -7.4390
  96   2.0000      -0.268340        -7.3019
  97   2.0000      -0.257302        -7.0015
  98   0.0000      -0.132170        -3.5965
  99   0.0000      -0.078910        -2.1472
 100   0.0000      -0.059452        -1.6178
 101   0.0000      -0.051373        -1.3979
 102   0.0000      -0.043868        -1.1937

MULLIKEN ATOMIC CHARGES
-----------------------
   0 C :    1.932557
   1 C :   -0.654496
   2 C :    0.742234
   3 C :   -1.017943
   4 C :    1.044044
   5 C :   -1.784868
   6 H :    0.741966
   7 H :    0.280237
   8 H :    0.366840
   9 C :    1.206556
  10 C :   -1.281142
  11 C :    2.182743
  12 C :   -0.730672
  13 H :    0.475712
  14 C :   -1.598883
  15 C :   -0.663357
  16 H :    0.512476
  17 H :    0.221277
  18 H :    0.525209
  19 C :    1.079626
  20 C :   -1.823214
  21 H :    0.577371
  22 Au:    0.356520
  23 Cl:   -0.519191
  24 Cl:   -0.461090
  25 Cl:   -0.518340
  26 O :   -0.639732
  27 O :   -0.685968
  28 C :   -1.608785
  29 H :    0.562404
  30 H :    0.512699
  31 H :    0.582687
  32 C :   -1.526632
  33 H :    0.502272
  34 H :    0.559391
  35 H :    0.549491
Sum of atomic charges:    0.0000000

LOEWDIN ATOMIC CHARGES
----------------------
   0 C :   -0.126782
   1 C :    0.064886
   2 C :   -0.222995
   3 C :    0.123861
   4 C :   -0.209555
   5 C :    0.128564
   6 H :    0.040040
   7 H :   -0.011291
   8 H :    0.034048
   9 C :   -0.088995
  10 C :    0.064825
  11 C :   -0.153049
  12 C :    0.035263
  13 H :    0.020868
  14 C :    0.053272
  15 C :    0.035722
  16 H :    0.009922
  17 H :   -0.008511
  18 H :    0.011089
  19 C :   -0.327608
  20 C :    0.188416
  21 H :   -0.011995
  22 Au:    0.255571
  23 Cl:   -0.061776
  24 Cl:   -0.122188
  25 Cl:   -0.040614
  26 O :   -0.023541
  27 O :   -0.017688
  28 C :    0.130607
  29 H :    0.016726
  30 H :    0.016736
  31 H :    0.016977
  32 C :    0.129575
  33 H :    0.016434
  34 H :    0.017251
  35 H :    0.015937

  Mayer bond orders larger than 0.100000
B(  0-C ,  1-C ) :  -0.5294 B(  0-C ,  2-C ) :   0.7670 B(  0-C ,  3-C ) :  -0.7659
B(  0-C ,  4-C ) :   0.2283 B(  0-C ,  5-C ) :  -0.1918 B(  0-C ,  8-H ) :  -0.4665
B(  0-C ,  9-C ) :  -2.7144 B(  0-C , 10-C ) :  -0.4814 B(  0-C , 12-C ) :  -0.3397
B(  0-C , 14-C ) :  -0.1869 B(  0-C , 15-C ) :   0.2318 B(  0-C , 19-C ) :  -0.7019
B(  0-C , 20-C ) :   0.3461 B(  1-C ,  2-C ) :   0.9713 B(  1-C ,  3-C ) :  -0.2455
B(  1-C ,  4-C ) :   0.3659 B(  1-C ,  5-C ) :   0.3153 B(  1-C ,  6-H ) :   0.5699
B(  1-C ,  9-C ) :  -0.1206 B(  1-C , 10-C ) :   0.8461 B(  1-C , 11-C ) :  -0.2618
B(  1-C , 12-C ) :  -0.3542 B(  1-C , 13-H ) :   0.1082 B(  1-C , 14-C ) :  -0.2054
B(  1-C , 15-C ) :   0.2865 B(  1-C , 19-C ) :   0.5825 B(  1-C , 26-O ) :  -0.1979
B(  2-C ,  3-C ) :   0.5374 B(  2-C ,  4-C ) :   0.3640 B(  2-C ,  7-H ) :  -0.2497
B(  2-C , 10-C ) :  -0.7403 B(  2-C , 11-C ) :   0.2182 B(  2-C , 12-C ) :   0.3626
B(  2-C , 14-C ) :   0.2626 B(  2-C , 15-C ) :  -0.2396 B(  2-C , 20-C ) :  -0.1840
B(  2-C , 26-O ) :   0.7906 B(  2-C , 28-C ) :  -0.1493 B(  3-C ,  4-C ) :   0.6581
B(  3-C ,  5-C ) :  -0.3107 B(  3-C ,  7-H ) :   1.4857 B(  3-C ,  9-C ) :   0.3077
B(  3-C , 10-C ) :   0.3853 B(  3-C , 11-C ) :  -0.2265 B(  3-C , 19-C ) :   0.1971
B(  3-C , 27-O ) :  -0.1225 B(  4-C ,  5-C ) :   1.6728 B(  4-C ,  7-H ) :  -0.2140
B(  4-C ,  9-C ) :  -0.1909 B(  4-C , 10-C ) :  -0.6253 B(  4-C , 11-C ) :   0.1618
B(  4-C , 12-C ) :   0.2524 B(  4-C , 14-C ) :   0.2578 B(  4-C , 15-C ) :  -0.1200
B(  4-C , 19-C ) :  -0.1960 B(  4-C , 27-O ) :   0.6982 B(  4-C , 32-C ) :  -0.1762
B(  5-C ,  8-H ) :   1.3353 B(  5-C ,  9-C ) :  -0.6553 B(  5-C , 10-C ) :   0.6168
B(  5-C , 11-C ) :  -0.3002 B(  5-C , 12-C ) :  -0.1814 B(  5-C , 14-C ) :  -0.2518
B(  5-C , 17-H ) :  -0.1048 B(  5-C , 20-C ) :   0.2702 B(  6-H , 11-C ) :  -0.1075
B(  7-H , 28-C ) :  -0.1817 B(  7-H , 32-C ) :  -0.1763 B(  9-C , 10-C ) :  -1.2748
B(  9-C , 11-C ) :   0.9107 B(  9-C , 12-C ) :   0.2921 B(  9-C , 13-H ) :  -0.5070
B(  9-C , 14-C ) :  -0.4664 B(  9-C , 15-C ) :  -0.2244 B(  9-C , 17-H ) :   0.1111
B(  9-C , 19-C ) :   0.2385 B( 10-C , 11-C ) :  -0.1130 B( 10-C , 12-C ) :   1.1870
B( 10-C , 13-H ) :   1.1780 B( 10-C , 17-H ) :  -0.1034 B( 10-C , 19-C ) :   0.2531
B( 10-C , 20-C ) :  -0.1301 B( 11-C , 14-C ) :  -1.6176 B( 11-C , 15-C ) :  -0.1293
B( 11-C , 17-H ) :  -0.8605 B( 11-C , 19-C ) :  -0.3595 B( 11-C , 20-C ) :  -0.9322
B( 11-C , 22-Au) :  -0.9490 B( 11-C , 25-Cl) :  -0.5250 B( 12-C , 14-C ) :   0.2513
B( 12-C , 15-C ) :   0.8997 B( 12-C , 16-H ) :   0.8429 B( 12-C , 19-C ) :  -0.2492
B( 14-C , 15-C ) :   1.5121 B( 14-C , 17-H ) :   1.6673 B( 14-C , 19-C ) :  -0.3124
B( 14-C , 20-C ) :   0.4497 B( 15-C , 18-H ) :   0.8250 B( 15-C , 19-C ) :  -0.1025
B( 15-C , 20-C ) :  -0.2101 B( 17-H , 25-Cl) :   0.1350 B( 19-C , 20-C ) :   0.5563
B( 19-C , 21-H ) :  -0.1387 B( 19-C , 22-Au) :  -0.5141 B( 19-C , 23-Cl) :  -0.3920
B( 20-C , 21-H ) :   0.8223 B( 20-C , 22-Au) :   1.7749 B( 21-H , 22-Au) :   0.1690
B( 22-Au, 23-Cl) :   0.9484 B( 22-Au, 24-Cl) :   0.7070 B( 22-Au, 25-Cl) :   0.9531
B( 23-Cl, 25-Cl) :   0.1462 B( 26-O , 28-C ) :   0.6389 B( 27-O , 32-C ) :   0.6198
B( 28-C , 29-H ) :   0.6924 B( 28-C , 30-H ) :   0.8134 B( 28-C , 31-H ) :   0.6749
B( 32-C , 33-H ) :   0.8275 B( 32-C , 34-H ) :   0.7021 B( 32-C , 35-H ) :   0.7119

Dispersion correction           -0.007669821
FINAL SINGLE POINT ENERGY     -2284.650654601036

DIPOLE MOMENT
-------------
                                X             Y             Z
Electronic contribution:    332.51573     -71.55649     -21.69115
Nuclear contribution   :   -337.50313      71.82916      22.27008
                        -----------------------------------------
Total Dipole Moment    :     -4.98739       0.27267       0.57892
                        -----------------------------------------
Magnitude (a.u.)       :      5.02828
Magnitude (Debye)      :     12.78087

Rotational constants in cm-1:     0.008801     0.003370     0.003018
Rotational constants in MHz :   263.837003   101.042363    90.466575

                             ****ORCA TERMINATED NORMALLY****
TOTAL RUN TIME: 0 days 0 hours 16 minutes 15 seconds 312 msec
