                         Program Version 4.2.0 -  RELEASE  -
|  1> #
|  2> # TMB26_C1 M06-D3/Def2-TZVPPD
|  3> #
|  4> ! m06 d3zero def2-tzvppd def2/jk grid4 nofinalgrid
|  5>
|  6> *xyz 0 1
|  7> C        2.167128    1.329895    0.039526
|  8> C        2.525644    0.739273   -1.166486
|  9> C        3.439975   -0.306708   -1.174383
| 10> C        3.999633   -0.766755    0.014468
| 11> C        3.640245   -0.158436    1.215781
| 12> C        2.734668    0.894978    1.231934
| 13> H        2.127840    1.087811   -2.109674
| 14> H        4.700013   -1.586902    0.006791
| 15> H        2.446371    1.320973    2.183519
| 16> C        1.181573    2.421289    0.068499
| 17> C        1.441057    3.589123    0.775147
| 18> C       -0.063177    2.327678   -0.606474
| 19> C        0.528793    4.632414    0.796916
| 20> H        2.386085    3.685262    1.294444
| 21> C       -0.980026    3.398239   -0.582106
| 22> C       -0.681931    4.545260    0.115481
| 23> H        0.768969    5.533734    1.348653
| 24> H       -1.927777    3.275890   -1.088947
| 25> H       -1.387173    5.365524    0.142831
| 26> C       -0.458921    1.154963   -1.244997
| 27> C       -0.929867    0.115196   -1.736149
| 28> H       -0.939302   -0.474790   -2.633558
| 29> Au      -1.934281   -0.752855   -0.093938
| 30> Cl      -0.307197   -2.360512   -0.181170
| 31> Cl      -3.051038   -1.907317    1.520981
| 32> Cl      -3.535590    0.885204   -0.082121
| 33> O        3.733505   -0.820421   -2.387318
| 34> O        4.122752   -0.537296    2.416831
| 35> C        4.611393   -1.919557   -2.452177
| 36> H        4.218896   -2.777901   -1.898414
| 37> H        4.691177   -2.180906   -3.505103
| 38> H        5.605429   -1.663635   -2.071314
| 39> C        4.983111   -1.650773    2.472584
| 40> H        5.218240   -1.797897    3.524384
| 41> H        4.497038   -2.550975    2.084317
| 42> H        5.911564   -1.470782    1.920934
| 43> *
| 44>
| 45> %maxcore 5000
| 46>
| 47> %pal
| 48> nprocs = 24
| 49> end
| 50>
| 51>
| 52>                          ****END OF INPUT****

CARTESIAN COORDINATES (ANGSTROEM)
---------------------------------
  C      2.167128    1.329895    0.039526
  C      2.525644    0.739273   -1.166486
  C      3.439975   -0.306708   -1.174383
  C      3.999633   -0.766755    0.014468
  C      3.640245   -0.158436    1.215781
  C      2.734668    0.894978    1.231934
  H      2.127840    1.087811   -2.109674
  H      4.700013   -1.586902    0.006791
  H      2.446371    1.320973    2.183519
  C      1.181573    2.421289    0.068499
  C      1.441057    3.589123    0.775147
  C     -0.063177    2.327678   -0.606474
  C      0.528793    4.632414    0.796916
  H      2.386085    3.685262    1.294444
  C     -0.980026    3.398239   -0.582106
  C     -0.681931    4.545260    0.115481
  H      0.768969    5.533734    1.348653
  H     -1.927777    3.275890   -1.088947
  H     -1.387173    5.365524    0.142831
  C     -0.458921    1.154963   -1.244997
  C     -0.929867    0.115196   -1.736149
  H     -0.939302   -0.474790   -2.633558
  Au    -1.934281   -0.752855   -0.093938
  Cl    -0.307197   -2.360512   -0.181170
  Cl    -3.051038   -1.907317    1.520981
  Cl    -3.535590    0.885204   -0.082121
  O      3.733505   -0.820421   -2.387318
  O      4.122752   -0.537296    2.416831
  C      4.611393   -1.919557   -2.452177
  H      4.218896   -2.777901   -1.898414
  H      4.691177   -2.180906   -3.505103
  H      5.605429   -1.663635   -2.071314
  C      4.983111   -1.650773    2.472584
  H      5.218240   -1.797897    3.524384
  H      4.497038   -2.550975    2.084317
  H      5.911564   -1.470782    1.920934

 Total Charge           Charge          ....    0
 Multiplicity           Mult            ....    1
 Number of Electrons    NEL             ....  196
 Basis Dimension        Dim             .... 1122

ORBITAL ENERGIES
----------------

  NO   OCC          E(Eh)            E(eV)
   0   2.0000    -101.678476     -2766.8120
   1   2.0000    -101.677567     -2766.7873
   2   2.0000    -101.672541     -2766.6505
   3   2.0000     -19.259839      -524.0869
   4   2.0000     -19.258919      -524.0618
   5   2.0000     -10.325546      -280.9724
   6   2.0000     -10.319418      -280.8056
   7   2.0000     -10.319307      -280.8026
   8   2.0000     -10.304195      -280.3914
   9   2.0000     -10.303643      -280.3764
  10   2.0000     -10.302539      -280.3463
  11   2.0000     -10.301633      -280.3217
  12   2.0000     -10.294943      -280.1396
  13   2.0000     -10.290751      -280.0256
  14   2.0000     -10.289764      -279.9987
  15   2.0000     -10.276745      -279.6445
  16   2.0000     -10.276547      -279.6391
  17   2.0000     -10.274453      -279.5821
  18   2.0000     -10.249800      -278.9112
  19   2.0000     -10.245402      -278.7916
  20   2.0000     -10.243786      -278.7476
  21   2.0000      -9.553498      -259.9639
  22   2.0000      -9.552482      -259.9363
  23   2.0000      -9.547324      -259.7959
  24   2.0000      -7.261341      -197.5911
  25   2.0000      -7.260447      -197.5668
  26   2.0000      -7.255844      -197.4415
  27   2.0000      -7.254435      -197.4032
  28   2.0000      -7.254026      -197.3921
  29   2.0000      -7.253367      -197.3741
  30   2.0000      -7.252962      -197.3631
  31   2.0000      -7.248066      -197.2299
  32   2.0000      -7.247424      -197.2124
  33   2.0000      -4.251240      -115.6821
  34   2.0000      -2.439682       -66.3871
  35   2.0000      -2.437891       -66.3384
  36   2.0000      -2.416991       -65.7697
  37   2.0000      -1.114197       -30.3188
  38   2.0000      -1.112437       -30.2709
  39   2.0000      -0.931216       -25.3397
  40   2.0000      -0.888056       -24.1652
  41   2.0000      -0.854825       -23.2610
  42   2.0000      -0.825678       -22.4678
  43   2.0000      -0.809656       -22.0318
  44   2.0000      -0.795877       -21.6569
  45   2.0000      -0.794381       -21.6162
  46   2.0000      -0.790685       -21.5156
  47   2.0000      -0.788141       -21.4464
  48   2.0000      -0.767822       -20.8935
  49   2.0000      -0.746479       -20.3127
  50   2.0000      -0.711458       -19.3598
  51   2.0000      -0.691145       -18.8070
  52   2.0000      -0.670046       -18.2329
  53   2.0000      -0.630497       -17.1567
  54   2.0000      -0.623772       -16.9737
  55   2.0000      -0.596087       -16.2203
  56   2.0000      -0.576013       -15.6741
  57   2.0000      -0.555521       -15.1165
  58   2.0000      -0.544647       -14.8206
  59   2.0000      -0.525803       -14.3078
  60   2.0000      -0.524386       -14.2693
  61   2.0000      -0.514914       -14.0115
  62   2.0000      -0.508821       -13.8457
  63   2.0000      -0.504610       -13.7311
  64   2.0000      -0.498378       -13.5615
  65   2.0000      -0.488406       -13.2902
  66   2.0000      -0.483282       -13.1508
  67   2.0000      -0.477352       -12.9894
  68   2.0000      -0.461895       -12.5688
  69   2.0000      -0.457535       -12.4501
  70   2.0000      -0.450871       -12.2688
  71   2.0000      -0.446173       -12.1410
  72   2.0000      -0.431257       -11.7351
  73   2.0000      -0.424153       -11.5418
  74   2.0000      -0.421596       -11.4722
  75   2.0000      -0.417039       -11.3482
  76   2.0000      -0.413256       -11.2453
  77   2.0000      -0.411313       -11.1924
  78   2.0000      -0.402943       -10.9646
  79   2.0000      -0.397200       -10.8084
  80   2.0000      -0.380955       -10.3663
  81   2.0000      -0.378941       -10.3115
  82   2.0000      -0.370089       -10.0706
  83   2.0000      -0.361562        -9.8386
  84   2.0000      -0.353402        -9.6166
  85   2.0000      -0.352076        -9.5805
  86   2.0000      -0.342702        -9.3254
  87   2.0000      -0.326350        -8.8804
  88   2.0000      -0.317389        -8.6366
  89   2.0000      -0.310492        -8.4489
  90   2.0000      -0.305779        -8.3207
  91   2.0000      -0.290946        -7.9170
  92   2.0000      -0.282719        -7.6932
  93   2.0000      -0.280326        -7.6281
  94   2.0000      -0.277302        -7.5458
  95   2.0000      -0.271207        -7.3799
  96   2.0000      -0.267180        -7.2703
  97   2.0000      -0.242378        -6.5955
  98   0.0000      -0.146009        -3.9731
  99   0.0000      -0.085139        -2.3168
 100   0.0000      -0.054405        -1.4804
 101   0.0000      -0.041236        -1.1221
 102   0.0000      -0.036799        -1.0014

MULLIKEN ATOMIC CHARGES
-----------------------
   0 C :    2.237373
   1 C :   -1.644330
   2 C :    1.414828
   3 C :   -1.033539
   4 C :    1.325772
   5 C :   -1.586975
   6 H :    0.375780
   7 H :    0.238535
   8 H :    0.315297
   9 C :    0.846664
  10 C :   -1.150770
  11 C :    0.798393
  12 C :   -0.768237
  13 H :    0.498731
  14 C :   -1.999036
  15 C :   -0.312177
  16 H :    0.526390
  17 H :    0.418492
  18 H :    0.533712
  19 C :    0.563797
  20 C :   -0.659901
  21 H :    0.926074
  22 Au:    0.685321
  23 Cl:   -0.471548
  24 Cl:   -0.391805
  25 Cl:   -0.494369
  26 O :   -0.662236
  27 O :   -0.681296
  28 C :   -1.540081
  29 H :    0.553460
  30 H :    0.506417
  31 H :    0.557066
  32 C :   -1.525647
  33 H :    0.509037
  34 H :    0.563246
  35 H :    0.527563
Sum of atomic charges:   -0.0000000

LOEWDIN ATOMIC CHARGES
----------------------
   0 C :   -0.137668
   1 C :    0.107814
   2 C :   -0.218036
   3 C :    0.123651
   4 C :   -0.216430
   5 C :    0.115221
   6 H :    0.028428
   7 H :   -0.012324
   8 H :    0.029088
   9 C :   -0.073153
  10 C :    0.073556
  11 C :   -0.154024
  12 C :    0.060004
  13 H :    0.023049
  14 C :    0.068731
  15 C :    0.042502
  16 H :    0.016058
  17 H :    0.005481
  18 H :    0.012923
  19 C :   -0.052312
  20 C :   -0.075368
  21 H :   -0.037712
  22 Au:    0.233069
  23 Cl:   -0.068682
  24 Cl:   -0.119164
  25 Cl:   -0.050444
  26 O :   -0.028963
  27 O :   -0.027272
  28 C :    0.119787
  29 H :    0.017448
  30 H :    0.014494
  31 H :    0.014204
  32 C :    0.119922
  33 H :    0.014823
  34 H :    0.017585
  35 H :    0.013714

  Mayer bond orders larger than 0.100000
B(  0-C ,  1-C ) :  -0.5850 B(  0-C ,  2-C ) :   0.2347 B(  0-C ,  3-C ) :  -0.6333
B(  0-C ,  5-C ) :  -0.1150 B(  0-C ,  6-H ) :  -0.3697 B(  0-C ,  8-H ) :  -0.4659
B(  0-C ,  9-C ) :  -2.8376 B(  0-C , 10-C ) :  -0.4736 B(  0-C , 11-C ) :  -0.7148
B(  0-C , 12-C ) :  -0.3625 B(  0-C , 14-C ) :  -0.1516 B(  0-C , 15-C ) :   0.1334
B(  0-C , 20-C ) :   0.2060 B(  1-C ,  2-C ) :   1.1832 B(  1-C ,  3-C ) :  -0.2481
B(  1-C ,  4-C ) :   0.2042 B(  1-C ,  5-C ) :   0.5349 B(  1-C ,  6-H ) :   1.3131
B(  1-C ,  9-C ) :  -0.1922 B(  1-C , 10-C ) :   0.7645 B(  1-C , 12-C ) :  -0.3624
B(  1-C , 14-C ) :  -0.3849 B(  1-C , 15-C ) :   0.2556 B(  1-C , 19-C ) :   0.2698
B(  2-C ,  3-C ) :   0.5369 B(  2-C ,  4-C ) :   0.4198 B(  2-C ,  5-C ) :  -0.1518
B(  2-C ,  7-H ) :  -0.2817 B(  2-C , 10-C ) :  -0.6103 B(  2-C , 11-C ) :   0.2297
B(  2-C , 12-C ) :   0.2739 B(  2-C , 14-C ) :   0.2586 B(  2-C , 15-C ) :  -0.1919
B(  2-C , 26-O ) :   0.6955 B(  2-C , 28-C ) :  -0.1549 B(  3-C ,  4-C ) :   0.4398
B(  3-C ,  5-C ) :  -0.3355 B(  3-C ,  7-H ) :   1.5577 B(  3-C ,  9-C ) :   0.3091
B(  3-C , 10-C ) :   0.3942 B(  3-C , 11-C ) :  -0.1279 B(  3-C , 26-O ) :  -0.1327
B(  3-C , 27-O ) :  -0.1050 B(  4-C ,  5-C ) :   1.4522 B(  4-C ,  7-H ) :  -0.2500
B(  4-C , 10-C ) :  -0.3856 B(  4-C , 11-C ) :   0.1377 B(  4-C , 12-C ) :   0.1611
B(  4-C , 14-C ) :   0.2223 B(  4-C , 15-C ) :  -0.1032 B(  4-C , 27-O ) :   0.6453
B(  4-C , 32-C ) :  -0.1549 B(  5-C ,  8-H ) :   1.4057 B(  5-C ,  9-C ) :  -0.7691
B(  5-C , 10-C ) :   0.4792 B(  5-C , 11-C ) :  -0.2966 B(  5-C , 14-C ) :  -0.2158
B(  5-C , 19-C ) :   0.3068 B(  7-H , 28-C ) :  -0.1622 B(  7-H , 32-C ) :  -0.1827
B(  9-C , 10-C ) :  -1.4047 B(  9-C , 11-C ) :   1.5248 B(  9-C , 12-C ) :   0.3143
B(  9-C , 13-H ) :  -0.4536 B(  9-C , 14-C ) :   0.2412 B(  9-C , 15-C ) :  -0.1997
B(  9-C , 17-H ) :   0.1072 B(  9-C , 19-C ) :  -0.7897 B(  9-C , 20-C ) :  -0.3136
B( 10-C , 11-C ) :  -0.5264 B( 10-C , 12-C ) :   1.1792 B( 10-C , 13-H ) :   1.1358
B( 10-C , 14-C ) :  -0.1539 B( 10-C , 17-H ) :  -0.1047 B( 10-C , 19-C ) :   0.3224
B( 10-C , 20-C ) :   0.1245 B( 11-C , 12-C ) :   0.1876 B( 11-C , 14-C ) :   0.1643
B( 11-C , 15-C ) :  -0.5476 B( 11-C , 17-H ) :  -0.3748 B( 11-C , 19-C ) :   0.2166
B( 11-C , 20-C ) :  -0.8578 B( 12-C , 14-C ) :   0.2676 B( 12-C , 15-C ) :   0.7916
B( 12-C , 16-H ) :   0.8069 B( 14-C , 15-C ) :   0.7770 B( 14-C , 17-H ) :   1.4373
B( 14-C , 18-H ) :  -0.1135 B( 14-C , 19-C ) :  -1.7115 B( 15-C , 18-H ) :   0.8276
B( 15-C , 19-C ) :   0.3401 B( 15-C , 20-C ) :   0.1618 B( 17-H , 19-C ) :  -0.1411
B( 19-C , 20-C ) :   1.7122 B( 19-C , 23-Cl) :  -0.2585 B( 19-C , 25-Cl) :  -0.2514
B( 20-C , 22-Au) :   0.7462 B( 20-C , 23-Cl) :   0.2296 B( 20-C , 25-Cl) :   0.2211
B( 22-Au, 23-Cl) :   0.8069 B( 22-Au, 24-Cl) :   0.7131 B( 22-Au, 25-Cl) :   0.7698
B( 23-Cl, 25-Cl) :   0.1441 B( 26-O , 28-C ) :   0.6147 B( 27-O , 32-C ) :   0.5967
B( 28-C , 29-H ) :   0.7080 B( 28-C , 30-H ) :   0.8146 B( 28-C , 31-H ) :   0.7052
B( 32-C , 33-H ) :   0.8148 B( 32-C , 34-H ) :   0.7074 B( 32-C , 35-H ) :   0.7405

Dispersion correction           -0.007955969
FINAL SINGLE POINT ENERGY     -2284.669508930620

DIPOLE MOMENT
-------------
                                X             Y             Z
Electronic contribution:   -300.26181    -110.62368     -12.35357
Nuclear contribution   :    303.49748     112.54151      11.37787
                        -----------------------------------------
Total Dipole Moment    :      3.23566       1.91783      -0.97570
                        -----------------------------------------
Magnitude (a.u.)       :      3.88582
Magnitude (Debye)      :      9.87697

Rotational constants in cm-1:     0.007370     0.004054     0.003244
Rotational constants in MHz :   220.947502   121.548879    97.259691

                             ****ORCA TERMINATED NORMALLY****
TOTAL RUN TIME: 0 days 0 hours 17 minutes 30 seconds 417 msec
