                         Program Version 4.2.0 -  RELEASE  -
|  1> #
|  2> # TMB20_T3 M06-D3/Def2-TZVPPD
|  3> #
|  4> ! m06 d3zero def2-tzvppd def2/jk grid4 nofinalgrid
|  5>
|  6> *xyz 0 1
|  7> Re      -0.699337    0.269974   -0.016922
|  8> C       -1.517494    1.171658    1.511937
|  9> C       -2.128741    0.734814   -1.269556
| 10> C        0.006415    1.979914   -0.520985
| 11> Br      -2.293994   -1.692635    0.422377
| 12> O        0.401983    3.017146   -0.812479
| 13> O       -1.978437    1.683611    2.420736
| 14> O       -2.925520    0.985618   -2.040062
| 15> C        1.682445   -0.880018   -1.649716
| 16> C        0.364751   -1.082540   -1.469297
| 17> C        2.354559    0.058914   -0.699791
| 18> C        3.755152   -0.401179   -0.311110
| 19> O        4.391770   -1.216840   -0.916463
| 20> O        4.190730    0.250058    0.766853
| 21> C        1.438220    0.283372    0.494253
| 22> O        0.848413   -0.807036    1.012308
| 23> H        0.600901   -1.340620   -0.125835
| 24> C        5.512413   -0.088930    1.195157
| 25> H        5.700542    0.516294    2.077458
| 26> H        5.571154   -1.149548    1.436871
| 27> H        6.234349    0.138790    0.411497
| 28> H       -0.156995   -1.792005   -2.102193
| 29> H        2.493970    1.031893   -1.188973
| 30> H        1.754916    1.016172    1.230092
| 31> H        2.303398   -1.383326   -2.385460
| 32> *
| 33>
| 34> %maxcore 5000
| 35>
| 36> %pal
| 37> nprocs = 24
| 38> end
| 39>
| 40>
| 41>                          ****END OF INPUT****

CARTESIAN COORDINATES (ANGSTROEM)
---------------------------------
  Re    -0.699337    0.269974   -0.016922
  C     -1.517494    1.171658    1.511937
  C     -2.128741    0.734814   -1.269556
  C      0.006415    1.979914   -0.520985
  Br    -2.293994   -1.692635    0.422377
  O      0.401983    3.017146   -0.812479
  O     -1.978437    1.683611    2.420736
  O     -2.925520    0.985618   -2.040062
  C      1.682445   -0.880018   -1.649716
  C      0.364751   -1.082540   -1.469297
  C      2.354559    0.058914   -0.699791
  C      3.755152   -0.401179   -0.311110
  O      4.391770   -1.216840   -0.916463
  O      4.190730    0.250058    0.766853
  C      1.438220    0.283372    0.494253
  O      0.848413   -0.807036    1.012308
  H      0.600901   -1.340620   -0.125835
  C      5.512413   -0.088930    1.195157
  H      5.700542    0.516294    2.077458
  H      5.571154   -1.149548    1.436871
  H      6.234349    0.138790    0.411497
  H     -0.156995   -1.792005   -2.102193
  H      2.493970    1.031893   -1.188973
  H      1.754916    1.016172    1.230092
  H      2.303398   -1.383326   -2.385460

 Total Charge           Charge          ....    0
 Multiplicity           Mult            ....    1
 Number of Electrons    NEL             ....  160
 Basis Dimension        Dim             ....  825

ORBITAL ENERGIES
----------------

  NO   OCC          E(Eh)            E(eV)
   0   2.0000    -483.137401    -13146.8371
   1   2.0000     -62.769266     -1708.0386
   2   2.0000     -56.477367     -1536.8273
   3   2.0000     -56.475287     -1536.7707
   4   2.0000     -56.474960     -1536.7618
   5   2.0000     -19.311625      -525.4960
   6   2.0000     -19.298753      -525.1458
   7   2.0000     -19.295534      -525.0582
   8   2.0000     -19.291382      -524.9452
   9   2.0000     -19.286700      -524.8178
  10   2.0000     -19.228688      -523.2392
  11   2.0000     -10.401092      -283.0281
  12   2.0000     -10.383084      -282.5381
  13   2.0000     -10.379974      -282.4535
  14   2.0000     -10.365273      -282.0534
  15   2.0000     -10.361256      -281.9441
  16   2.0000     -10.313908      -280.6557
  17   2.0000     -10.303359      -280.3686
  18   2.0000     -10.292498      -280.0731
  19   2.0000     -10.248967      -278.8886
  20   2.0000      -8.805217      -239.6021
  21   2.0000      -6.582375      -179.1155
  22   2.0000      -6.575780      -178.9361
  23   2.0000      -6.574724      -178.9073
  24   2.0000      -3.220244       -87.6273
  25   2.0000      -2.641803       -71.8871
  26   2.0000      -2.640238       -71.8445
  27   2.0000      -2.639358       -71.8206
  28   2.0000      -2.634077       -71.6769
  29   2.0000      -2.634071       -71.6767
  30   2.0000      -1.809157       -49.2297
  31   2.0000      -1.802093       -49.0374
  32   2.0000      -1.792401       -48.7737
  33   2.0000      -1.182534       -32.1784
  34   2.0000      -1.170180       -31.8422
  35   2.0000      -1.167597       -31.7719
  36   2.0000      -1.166026       -31.7292
  37   2.0000      -1.123675       -30.5768
  38   2.0000      -1.079307       -29.3694
  39   2.0000      -0.877160       -23.8687
  40   2.0000      -0.797462       -21.7001
  41   2.0000      -0.752324       -20.4718
  42   2.0000      -0.747297       -20.3350
  43   2.0000      -0.681057       -18.5325
  44   2.0000      -0.627553       -17.0766
  45   2.0000      -0.620202       -16.8766
  46   2.0000      -0.610735       -16.6189
  47   2.0000      -0.601670       -16.3723
  48   2.0000      -0.593624       -16.1533
  49   2.0000      -0.575719       -15.6661
  50   2.0000      -0.558807       -15.2059
  51   2.0000      -0.535645       -14.5756
  52   2.0000      -0.527881       -14.3644
  53   2.0000      -0.522465       -14.2170
  54   2.0000      -0.515069       -14.0158
  55   2.0000      -0.514882       -14.0107
  56   2.0000      -0.506244       -13.7756
  57   2.0000      -0.504214       -13.7203
  58   2.0000      -0.495354       -13.4793
  59   2.0000      -0.491768       -13.3817
  60   2.0000      -0.490554       -13.3487
  61   2.0000      -0.487531       -13.2664
  62   2.0000      -0.481064       -13.0904
  63   2.0000      -0.478889       -13.0312
  64   2.0000      -0.469622       -12.7791
  65   2.0000      -0.456500       -12.4220
  66   2.0000      -0.440876       -11.9969
  67   2.0000      -0.425229       -11.5711
  68   2.0000      -0.407590       -11.0911
  69   2.0000      -0.404022       -10.9940
  70   2.0000      -0.358102        -9.7445
  71   2.0000      -0.352335        -9.5875
  72   2.0000      -0.337535        -9.1848
  73   2.0000      -0.320653        -8.7254
  74   2.0000      -0.319580        -8.6962
  75   2.0000      -0.312157        -8.4942
  76   2.0000      -0.294382        -8.0105
  77   2.0000      -0.280916        -7.6441
  78   2.0000      -0.268772        -7.3137
  79   2.0000      -0.251753        -6.8505
  80   0.0000      -0.092616        -2.5202
  81   0.0000      -0.072488        -1.9725
  82   0.0000      -0.047814        -1.3011
  83   0.0000      -0.035398        -0.9632
  84   0.0000      -0.033253        -0.9049

MULLIKEN ATOMIC CHARGES
-----------------------
   0 Re:    1.567174
   1 C :    0.473586
   2 C :    0.526213
   3 C :   -0.073844
   4 Br:   -0.722241
   5 O :   -0.554141
   6 O :   -0.523368
   7 O :   -0.498912
   8 C :   -1.477808
   9 C :   -0.326330
  10 C :    0.584086
  11 C :    0.339551
  12 O :   -0.730842
  13 O :   -0.342333
  14 C :   -1.028819
  15 O :   -0.785621
  16 H :    0.357318
  17 C :   -1.344373
  18 H :    0.468567
  19 H :    0.548647
  20 H :    0.547632
  21 H :    0.560427
  22 H :    0.824937
  23 H :    1.116626
  24 H :    0.493869
Sum of atomic charges:   -0.0000000

LOEWDIN ATOMIC CHARGES
----------------------
   0 Re:    0.617794
   1 C :   -0.245717
   2 C :   -0.281170
   3 C :   -0.256288
   4 Br:    0.166048
   5 O :    0.134296
   6 O :    0.126067
   7 O :    0.148032
   8 C :    0.048696
   9 C :    0.001874
  10 C :   -0.096802
  11 C :   -0.429801
  12 O :    0.130884
  13 O :    0.008621
  14 C :   -0.192884
  15 O :   -0.040296
  16 H :   -0.155937
  17 C :    0.177518
  18 H :    0.013841
  19 H :    0.018475
  20 H :    0.016951
  21 H :   -0.038145
  22 H :    0.062855
  23 H :    0.039751
  24 H :    0.025337

  Mayer bond orders larger than 0.100000
B(  0-Re,  1-C ) :   0.9809 B(  0-Re,  2-C ) :   0.7957 B(  0-Re,  3-C ) :   0.7439
B(  0-Re,  4-Br) :  -0.1185 B(  0-Re,  8-C ) :   0.1377 B(  0-Re,  9-C ) :   0.2506
B(  0-Re, 14-C ) :   0.3549 B(  0-Re, 15-O ) :   0.2674 B(  1-C ,  2-C ) :  -0.1843
B(  1-C ,  4-Br) :   0.1172 B(  1-C ,  6-O ) :   1.7055 B(  2-C ,  4-Br) :   0.1433
B(  2-C ,  7-O ) :   1.7111 B(  3-C ,  5-O ) :   1.6292 B(  3-C ,  8-C ) :  -0.1065
B(  3-C , 10-C ) :   0.1123 B(  3-C , 14-C ) :   0.2304 B(  4-Br, 15-O ) :   0.1072
B(  8-C ,  9-C ) :   1.2341 B(  8-C , 10-C ) :   0.2439 B(  8-C , 11-C ) :   0.1504
B(  8-C , 16-H ) :   0.1015 B(  8-C , 24-H ) :   0.8692 B(  9-C , 10-C ) :  -0.1356
B(  9-C , 15-O ) :   0.1249 B(  9-C , 16-H ) :   0.4337 B(  9-C , 21-H ) :   0.7880
B( 10-C , 11-C ) :   0.9325 B( 10-C , 14-C ) :   0.6261 B( 10-C , 22-H ) :   0.4392
B( 10-C , 23-H ) :   0.1046 B( 11-C , 12-O ) :   1.5592 B( 11-C , 13-O ) :   1.0554
B( 11-C , 17-C ) :  -0.1020 B( 11-C , 22-H ) :  -0.1032 B( 13-O , 17-C ) :   0.5098
B( 14-C , 15-O ) :   1.0070 B( 14-C , 23-H ) :  -0.2187 B( 15-O , 23-H ) :  -0.1001
B( 17-C , 18-H ) :   0.7985 B( 17-C , 19-H ) :   0.7275 B( 17-C , 20-H ) :   0.7099

Dispersion correction           -0.004572981
FINAL SINGLE POINT ENERGY     -3451.399401037963

DIPOLE MOMENT
-------------
                                X             Y             Z
Electronic contribution:   -122.91385      28.98639       0.57988
Nuclear contribution   :    124.94821     -28.06424      -0.72382
                        -----------------------------------------
Total Dipole Moment    :      2.03435       0.92214      -0.14394
                        -----------------------------------------
Magnitude (a.u.)       :      2.23823
Magnitude (Debye)      :      5.68912

Rotational constants in cm-1:     0.017375     0.006623     0.006112
Rotational constants in MHz :   520.879987   198.539547   183.234187

                             ****ORCA TERMINATED NORMALLY****
TOTAL RUN TIME: 0 days 0 hours 5 minutes 51 seconds 780 msec
