                         Program Version 4.2.0 -  RELEASE  -
|  1> #
|  2> # TMB20_I1 M06-D3/Def2-TZVPPD
|  3> #
|  4> ! m06 d3zero def2-tzvppd def2/jk grid4 nofinalgrid
|  5>
|  6> *xyz 0 1
|  7> Re       0.721260    0.301703   -0.012347
|  8> C        1.851141    0.452958   -1.678261
|  9> C        1.971728    0.634914    1.425372
| 10> C        0.763580    2.214165   -0.101283
| 11> Br       1.710512   -2.064741    0.019177
| 12> O        0.816608    3.358474   -0.166463
| 13> O        2.493283    0.513036   -2.612271
| 14> O        2.652573    0.808904    2.320449
| 15> C       -1.780395   -0.133590    1.665167
| 16> C       -0.470905   -0.371203    1.638632
| 17> C       -2.365069    0.652857    0.526821
| 18> C       -3.493010   -0.159458   -0.075600
| 19> O       -3.300943   -1.161632   -0.733339
| 20> O       -4.693453    0.297769    0.229376
| 21> C       -1.280010    0.876972   -0.512116
| 22> O       -0.953000   -0.240509   -1.297416
| 23> H       -1.566319   -0.977006   -1.049921
| 24> C       -5.797043   -0.483161   -0.244906
| 25> H       -6.688437    0.024549    0.111717
| 26> H       -5.787691   -0.527184   -1.333247
| 27> H       -5.742358   -1.494851    0.155119
| 28> H       -0.050439   -0.962173    2.449658
| 29> H       -2.758296    1.619346    0.851818
| 30> H       -2.454065   -0.501260    2.435709
| 31> H       -1.435420    1.741704   -1.151672
| 32> *
| 33>
| 34> %maxcore 5000
| 35>
| 36> %pal
| 37> nprocs = 24
| 38> end
| 39>
| 40>
| 41>                          ****END OF INPUT****

CARTESIAN COORDINATES (ANGSTROEM)
---------------------------------
  Re     0.721260    0.301703   -0.012347
  C      1.851141    0.452958   -1.678261
  C      1.971728    0.634914    1.425372
  C      0.763580    2.214165   -0.101283
  Br     1.710512   -2.064741    0.019177
  O      0.816608    3.358474   -0.166463
  O      2.493283    0.513036   -2.612271
  O      2.652573    0.808904    2.320449
  C     -1.780395   -0.133590    1.665167
  C     -0.470905   -0.371203    1.638632
  C     -2.365069    0.652857    0.526821
  C     -3.493010   -0.159458   -0.075600
  O     -3.300943   -1.161632   -0.733339
  O     -4.693453    0.297769    0.229376
  C     -1.280010    0.876972   -0.512116
  O     -0.953000   -0.240509   -1.297416
  H     -1.566319   -0.977006   -1.049921
  C     -5.797043   -0.483161   -0.244906
  H     -6.688437    0.024549    0.111717
  H     -5.787691   -0.527184   -1.333247
  H     -5.742358   -1.494851    0.155119
  H     -0.050439   -0.962173    2.449658
  H     -2.758296    1.619346    0.851818
  H     -2.454065   -0.501260    2.435709
  H     -1.435420    1.741704   -1.151672

 Total Charge           Charge          ....    0
 Multiplicity           Mult            ....    1
 Number of Electrons    NEL             ....  160
 Basis Dimension        Dim             ....  825

ORBITAL ENERGIES
----------------

  NO   OCC          E(Eh)            E(eV)
   0   2.0000    -483.136022    -13146.7995
   1   2.0000     -62.767818     -1707.9992
   2   2.0000     -56.475909     -1536.7876
   3   2.0000     -56.473900     -1536.7329
   4   2.0000     -56.473486     -1536.7217
   5   2.0000     -19.307107      -525.3731
   6   2.0000     -19.301769      -525.2278
   7   2.0000     -19.299658      -525.1704
   8   2.0000     -19.298428      -525.1369
   9   2.0000     -19.291504      -524.9485
  10   2.0000     -19.239131      -523.5234
  11   2.0000     -10.407199      -283.1943
  12   2.0000     -10.374948      -282.3167
  13   2.0000     -10.373598      -282.2799
  14   2.0000     -10.371950      -282.2351
  15   2.0000     -10.346002      -281.5290
  16   2.0000     -10.317853      -280.7630
  17   2.0000     -10.288365      -279.9607
  18   2.0000     -10.243754      -278.7467
  19   2.0000     -10.225251      -278.2432
  20   2.0000      -8.803749      -239.5622
  21   2.0000      -6.580833      -179.0736
  22   2.0000      -6.574461      -178.9002
  23   2.0000      -6.573171      -178.8651
  24   2.0000      -3.215634       -87.5019
  25   2.0000      -2.640283       -71.8457
  26   2.0000      -2.638799       -71.8054
  27   2.0000      -2.637817       -71.7786
  28   2.0000      -2.632660       -71.6383
  29   2.0000      -2.632626       -71.6374
  30   2.0000      -1.802448       -49.0471
  31   2.0000      -1.797901       -48.9234
  32   2.0000      -1.787288       -48.6346
  33   2.0000      -1.177584       -32.0437
  34   2.0000      -1.176511       -32.0145
  35   2.0000      -1.172929       -31.9170
  36   2.0000      -1.163121       -31.6501
  37   2.0000      -1.136319       -30.9208
  38   2.0000      -1.084691       -29.5159
  39   2.0000      -0.861004       -23.4291
  40   2.0000      -0.779889       -21.2219
  41   2.0000      -0.746758       -20.3203
  42   2.0000      -0.743271       -20.2254
  43   2.0000      -0.700427       -19.0596
  44   2.0000      -0.627980       -17.0882
  45   2.0000      -0.618720       -16.8362
  46   2.0000      -0.600857       -16.3502
  47   2.0000      -0.595472       -16.2036
  48   2.0000      -0.592286       -16.1169
  49   2.0000      -0.566580       -15.4174
  50   2.0000      -0.555019       -15.1028
  51   2.0000      -0.541296       -14.7294
  52   2.0000      -0.534512       -14.5448
  53   2.0000      -0.529417       -14.4062
  54   2.0000      -0.514990       -14.0136
  55   2.0000      -0.511197       -13.9104
  56   2.0000      -0.503514       -13.7013
  57   2.0000      -0.499674       -13.5968
  58   2.0000      -0.497899       -13.5485
  59   2.0000      -0.493913       -13.4401
  60   2.0000      -0.490336       -13.3427
  61   2.0000      -0.477778       -13.0010
  62   2.0000      -0.474780       -12.9194
  63   2.0000      -0.473316       -12.8796
  64   2.0000      -0.457473       -12.4485
  65   2.0000      -0.447278       -12.1711
  66   2.0000      -0.442334       -12.0365
  67   2.0000      -0.412010       -11.2114
  68   2.0000      -0.397614       -10.8196
  69   2.0000      -0.396721       -10.7953
  70   2.0000      -0.365141        -9.9360
  71   2.0000      -0.356400        -9.6981
  72   2.0000      -0.339630        -9.2418
  73   2.0000      -0.320796        -8.7293
  74   2.0000      -0.318375        -8.6634
  75   2.0000      -0.299392        -8.1469
  76   2.0000      -0.284161        -7.7324
  77   2.0000      -0.271053        -7.3757
  78   2.0000      -0.257773        -7.0144
  79   2.0000      -0.247572        -6.7368
  80   0.0000      -0.086634        -2.3574
  81   0.0000      -0.052853        -1.4382
  82   0.0000      -0.045750        -1.2449
  83   0.0000      -0.033172        -0.9027
  84   0.0000      -0.027139        -0.7385

MULLIKEN ATOMIC CHARGES
-----------------------
   0 Re:    1.684231
   1 C :    0.252622
   2 C :    0.668538
   3 C :   -0.009523
   4 Br:   -0.728170
   5 O :   -0.560124
   6 O :   -0.487314
   7 O :   -0.517018
   8 C :   -1.403330
   9 C :   -0.587207
  10 C :    0.785683
  11 C :    0.586477
  12 O :   -0.704959
  13 O :   -0.440266
  14 C :   -1.368558
  15 O :   -0.562649
  16 H :    0.487975
  17 C :   -1.376099
  18 H :    0.487606
  19 H :    0.547040
  20 H :    0.553548
  21 H :    0.380576
  22 H :    0.767086
  23 H :    0.457801
  24 H :    1.086032
Sum of atomic charges:    0.0000000

LOEWDIN ATOMIC CHARGES
----------------------
   0 Re:    0.616754
   1 C :   -0.217638
   2 C :   -0.290907
   3 C :   -0.260573
   4 Br:    0.162633
   5 O :    0.131957
   6 O :    0.141237
   7 O :    0.152771
   8 C :   -0.045567
   9 C :   -0.091923
  10 C :   -0.112632
  11 C :   -0.417116
  12 O :    0.126814
  13 O :    0.033815
  14 C :   -0.153672
  15 O :    0.125549
  16 H :   -0.161902
  17 C :    0.182118
  18 H :    0.014285
  19 H :    0.017180
  20 H :    0.018740
  21 H :   -0.061084
  22 H :    0.055562
  23 H :    0.008686
  24 H :    0.024912

  Mayer bond orders larger than 0.100000
B(  0-Re,  1-C ) :   0.2465 B(  0-Re,  2-C ) :   0.8703 B(  0-Re,  3-C ) :   0.9065
B(  0-Re,  9-C ) :   0.4229 B(  0-Re, 14-C ) :   0.5631 B(  0-Re, 15-O ) :   0.2531
B(  1-C ,  2-C ) :  -0.1161 B(  1-C ,  3-C ) :   0.1496 B(  1-C ,  4-Br) :   0.1250
B(  1-C ,  6-O ) :   1.7580 B(  2-C ,  7-O ) :   1.7463 B(  3-C ,  5-O ) :   1.5831
B(  3-C , 14-C ) :   0.2357 B(  4-Br,  9-C ) :   0.1697 B(  8-C ,  9-C ) :   1.6121
B(  8-C , 10-C ) :  -0.2104 B(  8-C , 11-C ) :   0.3161 B(  8-C , 14-C ) :   0.3478
B(  8-C , 21-H ) :  -0.1387 B(  8-C , 23-H ) :   0.9529 B(  9-C , 10-C ) :  -0.2453
B(  9-C , 14-C ) :   0.1111 B(  9-C , 21-H ) :   1.0904 B( 10-C , 11-C ) :   0.1332
B( 10-C , 14-C ) :   0.2467 B( 10-C , 15-O ) :  -0.1062 B( 10-C , 22-H ) :   0.4134
B( 10-C , 23-H ) :  -0.1277 B( 11-C , 12-O ) :   1.4042 B( 11-C , 13-O ) :   0.9752
B( 11-C , 14-C ) :   0.3742 B( 11-C , 17-C ) :  -0.1460 B( 13-O , 17-C ) :   0.4967
B( 14-C , 15-O ) :   0.9129 B( 14-C , 24-H ) :  -0.3453 B( 15-O , 16-H ) :   0.5336
B( 17-C , 18-H ) :   0.7722 B( 17-C , 19-H ) :   0.7376 B( 17-C , 20-H ) :   0.7056

Dispersion correction           -0.004604662
FINAL SINGLE POINT ENERGY     -3451.430053313816

DIPOLE MOMENT
-------------
                                X             Y             Z
Electronic contribution:    123.09966      29.83855      -3.25347
Nuclear contribution   :   -125.53088     -28.89018       3.09124
                        -----------------------------------------
Total Dipole Moment    :     -2.43122       0.94838      -0.16223
                        -----------------------------------------
Magnitude (a.u.)       :      2.61468
Magnitude (Debye)      :      6.64599

Rotational constants in cm-1:     0.016025     0.007116     0.006337
Rotational constants in MHz :   480.407323   213.341783   189.987107

                             ****ORCA TERMINATED NORMALLY****
TOTAL RUN TIME: 0 days 0 hours 7 minutes 23 seconds 879 msec
