                         Program Version 4.2.0 -  RELEASE  -
|  1> #
|  2> # TMB29_T1 M06-D3/Def2-TZVPPD
|  3> #
|  4> ! m06 d3zero def2-tzvppd def2/jk grid4 nofinalgrid
|  5>
|  6> *xyz 1 1
|  7> C        0.302195   -1.452011   -0.105192
|  8> C        1.172851   -0.582511    0.135564
|  9> C        0.213900   -2.914548   -0.330337
| 10> H        1.214756   -3.345744   -0.317276
| 11> H       -0.388020   -3.382295    0.449588
| 12> H       -0.265099   -3.130327   -1.285361
| 13> C        1.829635    0.694580    0.494281
| 14> O        3.171960    0.697894   -0.020842
| 15> C        3.732653   -0.510299   -0.087290
| 16> O        3.070225   -1.500320    0.142290
| 17> C        1.080449    1.884401   -0.190647
| 18> O        0.030957    2.232541    0.278513
| 19> C        1.716450    2.521139   -1.379228
| 20> H        1.946637    1.771224   -2.139595
| 21> H        1.044796    3.276244   -1.779459
| 22> H        2.667103    2.978996   -1.097340
| 23> C        5.172060   -0.490501   -0.447138
| 24> H        5.507658   -1.496958   -0.678577
| 25> H        5.341426    0.179166   -1.290238
| 26> H        5.741456   -0.101237    0.400021
| 27> C        1.875471    0.903584    2.001010
| 28> H        2.434564    1.811885    2.227294
| 29> H        0.861108    1.010944    2.380408
| 30> H        2.353249    0.052039    2.484190
| 31> Au      -1.471331   -0.309724   -0.041930
| 32> P       -3.515153    0.680562    0.009165
| 33> H       -3.799713    1.607377   -1.007127
| 34> H       -4.633094   -0.165367   -0.073799
| 35> H       -3.823490    1.429925    1.156436
| 36> *
| 37>
| 38> %maxcore 5000
| 39>
| 40> %pal
| 41> nprocs = 24
| 42> end
| 43>
| 44>
| 45>                          ****END OF INPUT****

CARTESIAN COORDINATES (ANGSTROEM)
---------------------------------
  C      0.302195   -1.452011   -0.105192
  C      1.172851   -0.582511    0.135564
  C      0.213900   -2.914548   -0.330337
  H      1.214756   -3.345744   -0.317276
  H     -0.388020   -3.382295    0.449588
  H     -0.265099   -3.130327   -1.285361
  C      1.829635    0.694580    0.494281
  O      3.171960    0.697894   -0.020842
  C      3.732653   -0.510299   -0.087290
  O      3.070225   -1.500320    0.142290
  C      1.080449    1.884401   -0.190647
  O      0.030957    2.232541    0.278513
  C      1.716450    2.521139   -1.379228
  H      1.946637    1.771224   -2.139595
  H      1.044796    3.276244   -1.779459
  H      2.667103    2.978996   -1.097340
  C      5.172060   -0.490501   -0.447138
  H      5.507658   -1.496958   -0.678577
  H      5.341426    0.179166   -1.290238
  H      5.741456   -0.101237    0.400021
  C      1.875471    0.903584    2.001010
  H      2.434564    1.811885    2.227294
  H      0.861108    1.010944    2.380408
  H      2.353249    0.052039    2.484190
  Au    -1.471331   -0.309724   -0.041930
  P     -3.515153    0.680562    0.009165
  H     -3.799713    1.607377   -1.007127
  H     -4.633094   -0.165367   -0.073799
  H     -3.823490    1.429925    1.156436

 Total Charge           Charge          ....    1
 Multiplicity           Mult            ....    1
 Number of Electrons    NEL             ....  126
 Basis Dimension        Dim             ....  815

ORBITAL ENERGIES
----------------

  NO   OCC          E(Eh)            E(eV)
   0   2.0000     -77.407461     -2106.3641
   1   2.0000     -19.411645      -528.2177
   2   2.0000     -19.358722      -526.7776
   3   2.0000     -19.347100      -526.4614
   4   2.0000     -10.520936      -286.2892
   5   2.0000     -10.482489      -285.2430
   6   2.0000     -10.478366      -285.1308
   7   2.0000     -10.439435      -284.0715
   8   2.0000     -10.401299      -283.0337
   9   2.0000     -10.370801      -282.2039
  10   2.0000     -10.369656      -282.1727
  11   2.0000     -10.365010      -282.0463
  12   2.0000     -10.363349      -282.0011
  13   2.0000      -6.837432      -186.0560
  14   2.0000      -4.957490      -134.9002
  15   2.0000      -4.957466      -134.8995
  16   2.0000      -4.955337      -134.8416
  17   2.0000      -4.309508      -117.2677
  18   2.0000      -2.501532       -68.0701
  19   2.0000      -2.490137       -67.7601
  20   2.0000      -2.489802       -67.7509
  21   2.0000      -1.298277       -35.3279
  22   2.0000      -1.219113       -33.1738
  23   2.0000      -1.198904       -32.6238
  24   2.0000      -0.989362       -26.9219
  25   2.0000      -0.937431       -25.5088
  26   2.0000      -0.895977       -24.3808
  27   2.0000      -0.892374       -24.2827
  28   2.0000      -0.850044       -23.1309
  29   2.0000      -0.834595       -22.7105
  30   2.0000      -0.808828       -22.0093
  31   2.0000      -0.757914       -20.6239
  32   2.0000      -0.724644       -19.7186
  33   2.0000      -0.668623       -18.1942
  34   2.0000      -0.654212       -17.8020
  35   2.0000      -0.644891       -17.5484
  36   2.0000      -0.621723       -16.9179
  37   2.0000      -0.611304       -16.6344
  38   2.0000      -0.602388       -16.3918
  39   2.0000      -0.592881       -16.1331
  40   2.0000      -0.586469       -15.9586
  41   2.0000      -0.575749       -15.6669
  42   2.0000      -0.572706       -15.5841
  43   2.0000      -0.571210       -15.5434
  44   2.0000      -0.567072       -15.4308
  45   2.0000      -0.555036       -15.1033
  46   2.0000      -0.552604       -15.0371
  47   2.0000      -0.549053       -14.9405
  48   2.0000      -0.544223       -14.8091
  49   2.0000      -0.531080       -14.4514
  50   2.0000      -0.527063       -14.3421
  51   2.0000      -0.522112       -14.2074
  52   2.0000      -0.511062       -13.9067
  53   2.0000      -0.496318       -13.5055
  54   2.0000      -0.487665       -13.2700
  55   2.0000      -0.482694       -13.1348
  56   2.0000      -0.480714       -13.0809
  57   2.0000      -0.474104       -12.9010
  58   2.0000      -0.471192       -12.8218
  59   2.0000      -0.440796       -11.9947
  60   2.0000      -0.432437       -11.7672
  61   2.0000      -0.414316       -11.2741
  62   2.0000      -0.406039       -11.0489
  63   0.0000      -0.194271        -5.2864
  64   0.0000      -0.162681        -4.4268
  65   0.0000      -0.157398        -4.2830
  66   0.0000      -0.141121        -3.8401
  67   0.0000      -0.135448        -3.6857

MULLIKEN ATOMIC CHARGES
-----------------------
   0 C :    0.912653
   1 C :   -1.957445
   2 C :   -1.929340
   3 H :    0.588338
   4 H :    0.552034
   5 H :    0.540441
   6 C :    3.018414
   7 O :   -0.502429
   8 C :    1.549844
   9 O :   -0.665976
  10 C :    0.598204
  11 O :   -0.639959
  12 C :   -2.325438
  13 H :    0.496572
  14 H :    0.769306
  15 H :    0.535953
  16 C :   -2.256420
  17 H :    0.629414
  18 H :    0.588623
  19 H :    0.553200
  20 C :   -2.854907
  21 H :    0.726272
  22 H :    0.632852
  23 H :    0.739801
  24 Au:    0.362816
  25 P :   -0.523518
  26 H :    0.290355
  27 H :    0.280331
  28 H :    0.290009
Sum of atomic charges:    1.0000000

LOEWDIN ATOMIC CHARGES
----------------------
   0 C :   -0.250009
   1 C :    0.042586
   2 C :    0.128054
   3 H :   -0.001076
   4 H :   -0.000366
   5 H :   -0.002713
   6 C :   -0.345108
   7 O :    0.063404
   8 C :   -0.405247
   9 O :    0.131847
  10 C :   -0.321895
  11 O :    0.049036
  12 C :    0.235720
  13 H :    0.017072
  14 H :    0.014039
  15 H :    0.018778
  16 C :    0.269332
  17 H :    0.016188
  18 H :    0.017984
  19 H :    0.023911
  20 C :    0.239794
  21 H :    0.025376
  22 H :    0.012290
  23 H :    0.020908
  24 Au:    0.630307
  25 P :    0.841007
  26 H :   -0.156055
  27 H :   -0.160864
  28 H :   -0.154301

  Mayer bond orders larger than 0.100000
B(  0-C ,  1-C ) :  -1.9568 B(  0-C ,  4-H ) :  -0.1451 B(  0-C ,  5-H ) :  -0.1148
B(  0-C ,  6-C ) :   0.1153 B(  0-C , 20-C ) :  -0.1082 B(  0-C , 24-Au) :   1.1850
B(  1-C ,  2-C ) :  -0.1876 B(  1-C ,  6-C ) :  -0.4782 B(  1-C ,  7-O ) :  -0.1786
B(  1-C ,  8-C ) :  -0.1746 B(  1-C ,  9-O ) :   0.1095 B(  1-C , 10-C ) :   0.5442
B(  1-C , 11-O ) :  -0.1215 B(  1-C , 20-C ) :   0.3604 B(  1-C , 24-Au) :   0.1625
B(  2-C ,  3-H ) :   0.7142 B(  2-C ,  4-H ) :   0.8339 B(  2-C ,  5-H ) :   0.8196
B(  6-C ,  7-O ) :   0.7728 B(  6-C , 10-C ) :  -0.2516 B(  6-C , 11-O ) :  -0.1200
B(  6-C , 20-C ) :  -0.5045 B(  6-C , 22-H ) :  -0.2262 B(  7-O ,  8-C ) :   0.8510
B(  7-O , 20-C ) :   0.1601 B(  8-C ,  9-O ) :   1.5268 B(  8-C , 16-C ) :  -0.1495
B(  8-C , 18-H ) :  -0.1031 B(  8-C , 19-H ) :  -0.1346 B( 10-C , 11-O ) :   1.6530
B( 10-C , 12-C ) :  -0.1223 B( 10-C , 13-H ) :  -0.1659 B( 10-C , 15-H ) :  -0.1810
B( 10-C , 20-C ) :  -0.2306 B( 11-O , 12-C ) :   0.1291 B( 12-C , 13-H ) :   0.9490
B( 12-C , 14-H ) :   0.4151 B( 12-C , 15-H ) :   0.8939 B( 14-H , 15-H ) :   0.1043
B( 16-C , 17-H ) :   0.6975 B( 16-C , 18-H ) :   0.7521 B( 16-C , 19-H ) :   0.7994
B( 20-C , 21-H ) :   0.5642 B( 20-C , 22-H ) :   0.8896 B( 20-C , 23-H ) :   0.4632
B( 21-H , 22-H ) :   0.1288 B( 22-H , 23-H ) :   0.1068 B( 24-Au, 25-P ) :   0.8019
B( 25-P , 26-H ) :   0.8438 B( 25-P , 27-H ) :   0.8759 B( 25-P , 28-H ) :   0.8445

Dispersion correction           -0.005032716
FINAL SINGLE POINT ENERGY     -1054.401168760156

DIPOLE MOMENT
-------------
                                X             Y             Z
Electronic contribution:   -212.12362     -43.04845      -5.73022
Nuclear contribution   :    212.91002      43.46471       5.39034
                        -----------------------------------------
Total Dipole Moment    :      0.78640       0.41626      -0.33988
                        -----------------------------------------
Magnitude (a.u.)       :      0.95248
Magnitude (Debye)      :      2.42101

Rotational constants in cm-1:     0.027720     0.008314     0.006995
Rotational constants in MHz :   831.016337   249.254276   209.717578

                             ****ORCA TERMINATED NORMALLY****
TOTAL RUN TIME: 0 days 0 hours 5 minutes 42 seconds 605 msec
