                         Program Version 4.2.0 -  RELEASE  -
|  1> #
|  2> # TMB20_C1 M06-D3/Def2-TZVPPD
|  3> #
|  4> ! m06 d3zero def2-tzvppd def2/jk grid4 nofinalgrid
|  5>
|  6> *xyz 0 1
|  7> Re      -1.072665    0.212376   -0.034636
|  8> C       -1.072260   -0.271683    1.857255
|  9> C       -2.882577   -0.347239   -0.151918
| 10> C       -1.671800    1.974535    0.387813
| 11> Br      -0.106106   -2.222959   -0.227559
| 12> O       -2.042355    3.032773    0.649150
| 13> O       -1.092539   -0.543239    2.965184
| 14> O       -3.977345   -0.680746   -0.233754
| 15> C       -1.097144    1.301488   -2.052782
| 16> C       -0.757943    0.130940   -2.251371
| 17> C        3.116548    1.792974   -0.035452
| 18> C        3.822495    0.593532    0.034050
| 19> O        3.256440   -0.568022    0.077602
| 20> O        5.128051    0.619793    0.055969
| 21> C        1.730040    1.757413   -0.054388
| 22> O        1.074850    0.675289   -0.001074
| 23> H        2.259004   -0.423965    0.051981
| 24> C        5.826586   -0.629933    0.127198
| 25> H        6.879482   -0.365214    0.136783
| 26> H        5.557636   -1.164457    1.037079
| 27> H        5.594141   -1.245208   -0.740821
| 28> H       -0.446457   -0.764543   -2.749196
| 29> H        3.656243    2.725032   -0.072675
| 30> H       -1.374127    2.315189   -2.254725
| 31> H        1.177176    2.699572   -0.113184
| 32> *
| 33>
| 34> %maxcore 5000
| 35>
| 36> %pal
| 37> nprocs = 24
| 38> end
| 39>
| 40>
| 41>                          ****END OF INPUT****

CARTESIAN COORDINATES (ANGSTROEM)
---------------------------------
  Re    -1.072665    0.212376   -0.034636
  C     -1.072260   -0.271683    1.857255
  C     -2.882577   -0.347239   -0.151918
  C     -1.671800    1.974535    0.387813
  Br    -0.106106   -2.222959   -0.227559
  O     -2.042355    3.032773    0.649150
  O     -1.092539   -0.543239    2.965184
  O     -3.977345   -0.680746   -0.233754
  C     -1.097144    1.301488   -2.052782
  C     -0.757943    0.130940   -2.251371
  C      3.116548    1.792974   -0.035452
  C      3.822495    0.593532    0.034050
  O      3.256440   -0.568022    0.077602
  O      5.128051    0.619793    0.055969
  C      1.730040    1.757413   -0.054388
  O      1.074850    0.675289   -0.001074
  H      2.259004   -0.423965    0.051981
  C      5.826586   -0.629933    0.127198
  H      6.879482   -0.365214    0.136783
  H      5.557636   -1.164457    1.037079
  H      5.594141   -1.245208   -0.740821
  H     -0.446457   -0.764543   -2.749196
  H      3.656243    2.725032   -0.072675
  H     -1.374127    2.315189   -2.254725
  H      1.177176    2.699572   -0.113184

 Total Charge           Charge          ....    0
 Multiplicity           Mult            ....    1
 Number of Electrons    NEL             ....  160
 Basis Dimension        Dim             ....  825

ORBITAL ENERGIES
----------------

  NO   OCC          E(Eh)            E(eV)
   0   2.0000    -483.113554    -13146.1881
   1   2.0000     -62.745514     -1707.3922
   2   2.0000     -56.453430     -1536.1759
   3   2.0000     -56.451541     -1536.1245
   4   2.0000     -56.451366     -1536.1198
   5   2.0000     -19.311886      -525.5031
   6   2.0000     -19.293445      -525.0013
   7   2.0000     -19.280915      -524.6604
   8   2.0000     -19.272039      -524.4188
   9   2.0000     -19.262357      -524.1554
  10   2.0000     -19.254398      -523.9388
  11   2.0000     -10.427007      -283.7333
  12   2.0000     -10.356357      -281.8108
  13   2.0000     -10.349372      -281.6207
  14   2.0000     -10.347939      -281.5817
  15   2.0000     -10.335777      -281.2508
  16   2.0000     -10.328863      -281.0627
  17   2.0000     -10.278140      -279.6824
  18   2.0000     -10.269097      -279.4363
  19   2.0000     -10.260020      -279.1893
  20   2.0000      -8.781540      -238.9579
  21   2.0000      -6.558139      -178.4560
  22   2.0000      -6.552150      -178.2931
  23   2.0000      -6.551632      -178.2790
  24   2.0000      -3.185319       -86.6769
  25   2.0000      -2.617618       -71.2290
  26   2.0000      -2.616088       -71.1874
  27   2.0000      -2.615694       -71.1766
  28   2.0000      -2.610889       -71.0459
  29   2.0000      -2.610878       -71.0456
  30   2.0000      -1.768704       -48.1289
  31   2.0000      -1.766637       -48.0726
  32   2.0000      -1.764036       -48.0019
  33   2.0000      -1.203126       -32.7387
  34   2.0000      -1.151249       -31.3271
  35   2.0000      -1.142255       -31.0823
  36   2.0000      -1.132608       -30.8198
  37   2.0000      -1.131016       -30.7765
  38   2.0000      -1.100272       -29.9399
  39   2.0000      -0.844623       -22.9834
  40   2.0000      -0.805547       -21.9201
  41   2.0000      -0.778270       -21.1778
  42   2.0000      -0.724247       -19.7078
  43   2.0000      -0.680284       -18.5115
  44   2.0000      -0.672055       -18.2875
  45   2.0000      -0.603048       -16.4098
  46   2.0000      -0.598015       -16.2728
  47   2.0000      -0.592212       -16.1149
  48   2.0000      -0.575313       -15.6551
  49   2.0000      -0.573245       -15.5988
  50   2.0000      -0.556269       -15.1369
  51   2.0000      -0.555382       -15.1127
  52   2.0000      -0.542888       -14.7727
  53   2.0000      -0.525230       -14.2922
  54   2.0000      -0.506209       -13.7746
  55   2.0000      -0.489226       -13.3125
  56   2.0000      -0.485664       -13.2156
  57   2.0000      -0.484211       -13.1761
  58   2.0000      -0.479771       -13.0552
  59   2.0000      -0.477450       -12.9921
  60   2.0000      -0.476508       -12.9664
  61   2.0000      -0.469892       -12.7864
  62   2.0000      -0.464090       -12.6285
  63   2.0000      -0.463467       -12.6116
  64   2.0000      -0.455208       -12.3868
  65   2.0000      -0.453156       -12.3310
  66   2.0000      -0.448213       -12.1965
  67   2.0000      -0.436678       -11.8826
  68   2.0000      -0.418240       -11.3809
  69   2.0000      -0.391937       -10.6651
  70   2.0000      -0.364774        -9.9260
  71   2.0000      -0.357537        -9.7291
  72   2.0000      -0.341871        -9.3028
  73   2.0000      -0.302507        -8.2316
  74   2.0000      -0.294750        -8.0206
  75   2.0000      -0.288802        -7.8587
  76   2.0000      -0.281326        -7.6553
  77   2.0000      -0.242455        -6.5975
  78   2.0000      -0.241584        -6.5738
  79   2.0000      -0.232769        -6.3340
  80   0.0000      -0.077979        -2.1219
  81   0.0000      -0.052685        -1.4336
  82   0.0000      -0.046057        -1.2533
  83   0.0000      -0.035803        -0.9742
  84   0.0000      -0.025874        -0.7041

MULLIKEN ATOMIC CHARGES
-----------------------
   0 Re:    1.332677
   1 C :    0.329878
   2 C :    0.651545
   3 C :    0.235885
   4 Br:   -0.849296
   5 O :   -0.583113
   6 O :   -0.511616
   7 O :   -0.587333
   8 C :   -1.048843
   9 C :   -0.872106
  10 C :   -1.396059
  11 C :    1.452396
  12 O :   -0.627080
  13 O :   -0.560645
  14 C :    0.508053
  15 O :   -0.613972
  16 H :    0.453973
  17 C :   -1.339857
  18 H :    0.492141
  19 H :    0.553965
  20 H :    0.554318
  21 H :    0.796142
  22 H :    0.448744
  23 H :    0.814282
  24 H :    0.365921
Sum of atomic charges:   -0.0000000

LOEWDIN ATOMIC CHARGES
----------------------
   0 Re:    0.554613
   1 C :   -0.284002
   2 C :   -0.286940
   3 C :   -0.277532
   4 Br:    0.109272
   5 O :    0.093224
   6 O :    0.117081
   7 O :    0.103199
   8 C :    0.020600
   9 C :   -0.041184
  10 C :    0.109631
  11 C :   -0.326735
  12 O :    0.346493
  13 O :    0.047746
  14 C :   -0.103600
  15 O :   -0.174905
  16 H :   -0.206449
  17 C :    0.195175
  18 H :    0.018086
  19 H :    0.021147
  20 H :    0.021089
  21 H :   -0.068466
  22 H :    0.013569
  23 H :   -0.041742
  24 H :    0.040628

  Mayer bond orders larger than 0.100000
B(  0-Re,  1-C ) :   0.6074 B(  0-Re,  2-C ) :   1.3768 B(  0-Re,  3-C ) :   0.7864
B(  0-Re,  4-Br) :  -0.4397 B(  0-Re,  8-C ) :   0.5125 B(  0-Re, 15-O ) :   0.7082
B(  1-C ,  2-C ) :  -0.1968 B(  1-C ,  4-Br) :   0.2662 B(  1-C ,  6-O ) :   1.6614
B(  1-C ,  9-C ) :   0.1347 B(  1-C , 15-O ) :   0.1566 B(  2-C ,  7-O ) :   1.6058
B(  3-C ,  5-O ) :   1.6464 B(  3-C , 15-O ) :   0.1425 B(  4-Br,  9-C ) :   0.1972
B(  8-C ,  9-C ) :   2.8023 B(  8-C , 23-H ) :   0.2861 B(  9-C , 21-H ) :   0.3423
B( 10-C , 11-C ) :   0.9597 B( 10-C , 13-O ) :   0.1584 B( 10-C , 14-C ) :   0.8949
B( 10-C , 15-O ) :   0.4943 B( 10-C , 22-H ) :   0.8803 B( 10-C , 24-H ) :  -0.1249
B( 11-C , 12-O ) :   0.9697 B( 11-C , 13-O ) :   0.8214 B( 11-C , 15-O ) :   0.1488
B( 11-C , 17-C ) :  -0.1856 B( 12-O , 15-O ) :   0.1305 B( 12-O , 16-H ) :   0.5849
B( 13-O , 17-C ) :   0.5348 B( 14-C , 15-O ) :   0.9938 B( 14-C , 24-H ) :   0.9131
B( 15-O , 16-H ) :   0.1258 B( 17-C , 18-H ) :   0.7930 B( 17-C , 19-H ) :   0.7049
B( 17-C , 20-H ) :   0.7027

Dispersion correction           -0.004552899
FINAL SINGLE POINT ENERGY     -3451.435907842805

DIPOLE MOMENT
-------------
                                X             Y             Z
Electronic contribution:   -158.41214      14.19350      -3.94206
Nuclear contribution   :    161.40681     -12.70221       3.21078
                        -----------------------------------------
Total Dipole Moment    :      2.99468       1.49129      -0.73128
                        -----------------------------------------
Magnitude (a.u.)       :      3.42444
Magnitude (Debye)      :      8.70424

Rotational constants in cm-1:     0.015589     0.006706     0.005713
Rotational constants in MHz :   467.340547   201.035293   171.274519

                             ****ORCA TERMINATED NORMALLY****
TOTAL RUN TIME: 0 days 0 hours 5 minutes 11 seconds 836 msec
