                         Program Version 4.2.0 -  RELEASE  -
|  1> #
|  2> # TMB31_C1 M06-D3/Def2-TZVPPD
|  3> #
|  4> ! m06 d3zero def2-tzvppd def2/jk grid4 nofinalgrid
|  5>
|  6> *xyz 1 1
|  7> Ir      -0.040708    0.096324    0.064455
|  8> C       -0.971708    0.418734    1.931461
|  9> C        1.819460    0.364204   -1.190947
| 10> C        1.490903   -0.994938   -1.162590
| 11> C        1.450197   -1.406167    0.225985
| 12> C        1.875844   -0.290195    1.023097
| 13> C        2.052625    0.814608    0.164170
| 14> H       -0.394638    1.150210    2.498372
| 15> H       -1.993156    0.794195    1.837094
| 16> H       -1.008781   -0.505981    2.508304
| 17> H        1.977900   -0.288415    2.097324
| 18> H        2.352296    1.808383    0.458691
| 19> H        1.885000    0.981073   -2.074563
| 20> H        1.275763   -1.618283   -2.016436
| 21> H        1.275639   -2.406893    0.589421
| 22> C       -1.335861    2.101294   -0.927849
| 23> H       -0.822201    1.778454    0.045587
| 24> H       -0.969200    3.125001   -0.997930
| 25> H       -1.110952    1.579089   -1.850904
| 26> H       -2.401764    2.084149   -0.716661
| 27> P       -1.870306   -1.156932   -0.405763
| 28> H       -1.625569   -2.441008   -0.924735
| 29> H       -2.747711   -1.466666    0.650785
| 30> H       -2.792266   -0.681495   -1.360892
| 31> *
| 32>
| 33> %maxcore 5000
| 34>
| 35> %pal
| 36> nprocs = 24
| 37> end
| 38>
| 39>
| 40>                          ****END OF INPUT****

CARTESIAN COORDINATES (ANGSTROEM)
---------------------------------
  Ir    -0.040708    0.096324    0.064455
  C     -0.971708    0.418734    1.931461
  C      1.819460    0.364204   -1.190947
  C      1.490903   -0.994938   -1.162590
  C      1.450197   -1.406167    0.225985
  C      1.875844   -0.290195    1.023097
  C      2.052625    0.814608    0.164170
  H     -0.394638    1.150210    2.498372
  H     -1.993156    0.794195    1.837094
  H     -1.008781   -0.505981    2.508304
  H      1.977900   -0.288415    2.097324
  H      2.352296    1.808383    0.458691
  H      1.885000    0.981073   -2.074563
  H      1.275763   -1.618283   -2.016436
  H      1.275639   -2.406893    0.589421
  C     -1.335861    2.101294   -0.927849
  H     -0.822201    1.778454    0.045587
  H     -0.969200    3.125001   -0.997930
  H     -1.110952    1.579089   -1.850904
  H     -2.401764    2.084149   -0.716661
  P     -1.870306   -1.156932   -0.405763
  H     -1.625569   -2.441008   -0.924735
  H     -2.747711   -1.466666    0.650785
  H     -2.792266   -0.681495   -1.360892

 Total Charge           Charge          ....    1
 Multiplicity           Mult            ....    1
 Number of Electrons    NEL             ....   88
 Basis Dimension        Dim             ....  621

ORBITAL ENERGIES
----------------

  NO   OCC          E(Eh)            E(eV)
   0   2.0000     -77.415363     -2106.5791
   1   2.0000     -10.433711      -283.9157
   2   2.0000     -10.432059      -283.8708
   3   2.0000     -10.427736      -283.7531
   4   2.0000     -10.426127      -283.7093
   5   2.0000     -10.424280      -283.6591
   6   2.0000     -10.398805      -282.9659
   7   2.0000     -10.357092      -281.8308
   8   2.0000      -6.844377      -186.2450
   9   2.0000      -4.964667      -135.0955
  10   2.0000      -4.964404      -135.0883
  11   2.0000      -4.962324      -135.0317
  12   2.0000      -3.870252      -105.3149
  13   2.0000      -2.230047       -60.6827
  14   2.0000      -2.210162       -60.1416
  15   2.0000      -2.199811       -59.8599
  16   2.0000      -1.085017       -29.5248
  17   2.0000      -0.910565       -24.7777
  18   2.0000      -0.902537       -24.5593
  19   2.0000      -0.885611       -24.0987
  20   2.0000      -0.843167       -22.9437
  21   2.0000      -0.816549       -22.2194
  22   2.0000      -0.731191       -19.8967
  23   2.0000      -0.729213       -19.8429
  24   2.0000      -0.719227       -19.5712
  25   2.0000      -0.626644       -17.0519
  26   2.0000      -0.609023       -16.5723
  27   2.0000      -0.599512       -16.3135
  28   2.0000      -0.595403       -16.2017
  29   2.0000      -0.588623       -16.0172
  30   2.0000      -0.582694       -15.8559
  31   2.0000      -0.572741       -15.5851
  32   2.0000      -0.566961       -15.4278
  33   2.0000      -0.565942       -15.4001
  34   2.0000      -0.563809       -15.3420
  35   2.0000      -0.540159       -14.6985
  36   2.0000      -0.536473       -14.5982
  37   2.0000      -0.530071       -14.4240
  38   2.0000      -0.501467       -13.6456
  39   2.0000      -0.470462       -12.8019
  40   2.0000      -0.456886       -12.4325
  41   2.0000      -0.427624       -11.6362
  42   2.0000      -0.416299       -11.3281
  43   2.0000      -0.395223       -10.7546
  44   0.0000      -0.217965        -5.9311
  45   0.0000      -0.168301        -4.5797
  46   0.0000      -0.153590        -4.1794
  47   0.0000      -0.139532        -3.7969
  48   0.0000      -0.136907        -3.7254

MULLIKEN ATOMIC CHARGES
-----------------------
   0 Ir:    1.024417
   1 C :   -2.071205
   2 C :   -0.589121
   3 C :   -0.655821
   4 C :   -0.414585
   5 C :   -0.898606
   6 C :   -0.627636
   7 H :    0.665705
   8 H :    0.610906
   9 H :    0.531576
  10 H :    0.668142
  11 H :    0.585133
  12 H :    0.615730
  13 H :    0.593104
  14 H :    0.676691
  15 C :   -2.007127
  16 H :    0.383040
  17 H :    0.616590
  18 H :    0.479226
  19 H :    0.589694
  20 P :   -0.567678
  21 H :    0.265758
  22 H :    0.269324
  23 H :    0.256742
Sum of atomic charges:    1.0000000

LOEWDIN ATOMIC CHARGES
----------------------
   0 Ir:    0.937753
   1 C :   -0.025765
   2 C :   -0.051376
   3 C :   -0.063221
   4 C :   -0.099119
   5 C :   -0.058087
   6 C :   -0.050780
   7 H :   -0.076365
   8 H :   -0.089971
   9 H :   -0.081609
  10 H :    0.031963
  11 H :    0.025410
  12 H :    0.025900
  13 H :    0.019836
  14 H :    0.022072
  15 C :    0.249450
  16 H :   -0.144003
  17 H :   -0.016169
  18 H :   -0.057339
  19 H :   -0.027806
  20 P :    0.905485
  21 H :   -0.129678
  22 H :   -0.118775
  23 H :   -0.127804

  Mayer bond orders larger than 0.100000
B(  0-Ir,  1-C ) :   0.3925 B(  0-Ir,  2-C ) :   0.3329 B(  0-Ir,  3-C ) :   0.3136
B(  0-Ir,  4-C ) :   0.4947 B(  0-Ir,  5-C ) :   0.4065 B(  0-Ir,  6-C ) :   0.3263
B(  0-Ir, 16-H ) :   0.2398 B(  0-Ir, 20-P ) :   0.9145 B(  1-C ,  7-H ) :   0.6102
B(  1-C ,  8-H ) :   0.6554 B(  1-C ,  9-H ) :   0.8692 B(  2-C ,  3-C ) :   0.6699
B(  2-C ,  4-C ) :  -0.1394 B(  2-C ,  6-C ) :   0.4984 B(  2-C , 12-H ) :   0.7905
B(  3-C ,  4-C ) :   0.6615 B(  3-C , 13-H ) :   0.7955 B(  4-C ,  5-C ) :   0.6162
B(  4-C ,  6-C ) :  -0.1299 B(  4-C , 14-H ) :   0.6491 B(  5-C ,  6-C ) :   0.7138
B(  5-C , 10-H ) :   0.6944 B(  6-C , 11-H ) :   0.8295 B(  7-H ,  8-H ) :   0.1196
B(  8-H ,  9-H ) :   0.1523 B( 15-C , 17-H ) :   0.7694 B( 15-C , 18-H ) :   0.7955
B( 15-C , 19-H ) :   0.8043 B( 17-H , 19-H ) :   0.1100 B( 20-P , 21-H ) :   0.9005
B( 20-P , 22-H ) :   0.8999 B( 20-P , 23-H ) :   0.8936

Dispersion correction           -0.003344439
FINAL SINGLE POINT ENERGY      -721.135516959895

DIPOLE MOMENT
-------------
                                X             Y             Z
Electronic contribution:     -2.89244      10.04922       7.33059
Nuclear contribution   :      2.66689     -10.24599      -8.00272
                        -----------------------------------------
Total Dipole Moment    :     -0.22555      -0.19677      -0.67213
                        -----------------------------------------
Magnitude (a.u.)       :      0.73577
Magnitude (Debye)      :      1.87017

Rotational constants in cm-1:     0.050543     0.032436     0.029954
Rotational constants in MHz :  1515.232111   972.406510   898.012536

                             ****ORCA TERMINATED NORMALLY****
TOTAL RUN TIME: 0 days 0 hours 3 minutes 21 seconds 588 msec
