                         Program Version 4.2.0 -  RELEASE  -
|  1> #
|  2> # TMB31_T1 M06-D3/Def2-TZVPPD
|  3> #
|  4> ! m06 d3zero def2-tzvppd def2/jk grid4 nofinalgrid
|  5>
|  6> *xyz 1 1
|  7> Ir       0.050361    0.056236   -0.150076
|  8> C        0.978842   -1.302743   -1.517387
|  9> C       -1.864665    1.028637    0.563211
| 10> C       -1.426558    0.128925    1.555248
| 11> C       -1.389999   -1.187568    0.972706
| 12> C       -1.852948   -1.076424   -0.368776
| 13> C       -2.115280    0.291316   -0.640524
| 14> H        0.395138   -1.326753   -2.435403
| 15> H        2.003015   -1.039631   -1.784042
| 16> H        0.978935   -2.299217   -1.075482
| 17> H       -1.949414   -1.889112   -1.072248
| 18> H       -2.488115    0.695321   -1.568578
| 19> H       -1.982151    2.094988    0.682898
| 20> H       -1.179131    0.379256    2.575311
| 21> H       -1.144965   -2.105263    1.484015
| 22> C        0.981659    2.033847   -0.552795
| 23> H        0.609290    0.819803   -1.428069
| 24> H        0.362656    2.677374   -1.174650
| 25> H        1.003724    2.445002    0.454509
| 26> H        1.994491    2.026607   -0.953376
| 27> P        1.998129   -0.331589    0.938590
| 28> H        2.205383    0.285042    2.190624
| 29> H        2.302734   -1.672090    1.247762
| 30> H        3.172367    0.056392    0.263634
| 31> *
| 32>
| 33> %maxcore 5000
| 34>
| 35> %pal
| 36> nprocs = 24
| 37> end
| 38>
| 39>
| 40>                          ****END OF INPUT****

CARTESIAN COORDINATES (ANGSTROEM)
---------------------------------
  Ir     0.050361    0.056236   -0.150076
  C      0.978842   -1.302743   -1.517387
  C     -1.864665    1.028637    0.563211
  C     -1.426558    0.128925    1.555248
  C     -1.389999   -1.187568    0.972706
  C     -1.852948   -1.076424   -0.368776
  C     -2.115280    0.291316   -0.640524
  H      0.395138   -1.326753   -2.435403
  H      2.003015   -1.039631   -1.784042
  H      0.978935   -2.299217   -1.075482
  H     -1.949414   -1.889112   -1.072248
  H     -2.488115    0.695321   -1.568578
  H     -1.982151    2.094988    0.682898
  H     -1.179131    0.379256    2.575311
  H     -1.144965   -2.105263    1.484015
  C      0.981659    2.033847   -0.552795
  H      0.609290    0.819803   -1.428069
  H      0.362656    2.677374   -1.174650
  H      1.003724    2.445002    0.454509
  H      1.994491    2.026607   -0.953376
  P      1.998129   -0.331589    0.938590
  H      2.205383    0.285042    2.190624
  H      2.302734   -1.672090    1.247762
  H      3.172367    0.056392    0.263634

 Total Charge           Charge          ....    1
 Multiplicity           Mult            ....    1
 Number of Electrons    NEL             ....   88
 Basis Dimension        Dim             ....  621

ORBITAL ENERGIES
----------------

  NO   OCC          E(Eh)            E(eV)
   0   2.0000     -77.425257     -2106.8483
   1   2.0000     -10.428207      -283.7659
   2   2.0000     -10.426533      -283.7204
   3   2.0000     -10.425286      -283.6865
   4   2.0000     -10.424049      -283.6528
   5   2.0000     -10.422907      -283.6217
   6   2.0000     -10.407188      -283.1940
   7   2.0000     -10.374721      -282.3105
   8   2.0000      -6.853636      -186.4969
   9   2.0000      -4.973806      -135.3441
  10   2.0000      -4.973751      -135.3426
  11   2.0000      -4.971768      -135.2887
  12   2.0000      -3.881847      -105.6304
  13   2.0000      -2.237222       -60.8779
  14   2.0000      -2.221783       -60.4578
  15   2.0000      -2.214186       -60.2511
  16   2.0000      -1.083180       -29.4748
  17   2.0000      -0.905890       -24.6505
  18   2.0000      -0.901275       -24.5250
  19   2.0000      -0.870647       -23.6915
  20   2.0000      -0.847534       -23.0626
  21   2.0000      -0.825836       -22.4721
  22   2.0000      -0.728418       -19.8213
  23   2.0000      -0.727292       -19.7906
  24   2.0000      -0.717039       -19.5116
  25   2.0000      -0.635484       -17.2924
  26   2.0000      -0.611510       -16.6400
  27   2.0000      -0.601581       -16.3699
  28   2.0000      -0.599224       -16.3057
  29   2.0000      -0.592957       -16.1352
  30   2.0000      -0.585439       -15.9306
  31   2.0000      -0.565630       -15.3916
  32   2.0000      -0.564250       -15.3540
  33   2.0000      -0.563054       -15.3215
  34   2.0000      -0.550740       -14.9864
  35   2.0000      -0.549134       -14.9427
  36   2.0000      -0.542079       -14.7507
  37   2.0000      -0.532648       -14.4941
  38   2.0000      -0.507362       -13.8060
  39   2.0000      -0.472292       -12.8517
  40   2.0000      -0.457011       -12.4359
  41   2.0000      -0.433632       -11.7997
  42   2.0000      -0.427626       -11.6363
  43   2.0000      -0.407248       -11.0818
  44   0.0000      -0.192347        -5.2340
  45   0.0000      -0.170908        -4.6506
  46   0.0000      -0.157558        -4.2874
  47   0.0000      -0.147128        -4.0036
  48   0.0000      -0.136874        -3.7245

MULLIKEN ATOMIC CHARGES
-----------------------
   0 Ir:    1.194820
   1 C :   -2.203664
   2 C :   -0.629854
   3 C :   -0.650083
   4 C :   -0.535813
   5 C :   -0.776912
   6 C :   -0.700725
   7 H :    0.599418
   8 H :    0.723181
   9 H :    0.550377
  10 H :    0.666234
  11 H :    0.600256
  12 H :    0.672319
  13 H :    0.624532
  14 H :    0.655806
  15 C :   -2.176465
  16 H :    0.329574
  17 H :    0.655004
  18 H :    0.510941
  19 H :    0.702727
  20 P :   -0.666219
  21 H :    0.305361
  22 H :    0.289945
  23 H :    0.259239
Sum of atomic charges:    1.0000000

LOEWDIN ATOMIC CHARGES
----------------------
   0 Ir:    1.036077
   1 C :   -0.002146
   2 C :   -0.054557
   3 C :   -0.066889
   4 C :   -0.084008
   5 C :   -0.063230
   6 C :   -0.052225
   7 H :   -0.072130
   8 H :   -0.086601
   9 H :   -0.078051
  10 H :    0.030395
  11 H :    0.025718
  12 H :    0.028307
  13 H :    0.021188
  14 H :    0.021107
  15 C :    0.079637
  16 H :   -0.090798
  17 H :   -0.047784
  18 H :   -0.065838
  19 H :   -0.059458
  20 P :    0.913745
  21 H :   -0.117188
  22 H :   -0.109780
  23 H :   -0.105491

  Mayer bond orders larger than 0.100000
B(  0-Ir,  1-C ) :   0.3226 B(  0-Ir,  2-C ) :   0.3043 B(  0-Ir,  3-C ) :   0.3713
B(  0-Ir,  4-C ) :   0.4281 B(  0-Ir,  5-C ) :   0.3180 B(  0-Ir,  6-C ) :   0.3326
B(  0-Ir,  9-H ) :  -0.1177 B(  0-Ir, 15-C ) :   0.2299 B(  0-Ir, 16-H ) :   0.6458
B(  0-Ir, 18-H ) :  -0.1095 B(  0-Ir, 20-P ) :   0.8012 B(  1-C ,  7-H ) :   0.7421
B(  1-C ,  8-H ) :   0.4825 B(  1-C ,  9-H ) :   0.8405 B(  2-C ,  3-C ) :   0.6710
B(  2-C ,  4-C ) :  -0.1166 B(  2-C ,  6-C ) :   0.5546 B(  2-C , 12-H ) :   0.7237
B(  3-C ,  4-C ) :   0.6743 B(  3-C , 13-H ) :   0.7727 B(  4-C ,  5-C ) :   0.6749
B(  4-C ,  6-C ) :  -0.1093 B(  4-C , 14-H ) :   0.7009 B(  5-C ,  6-C ) :   0.6416
B(  5-C , 10-H ) :   0.7270 B(  6-C , 11-H ) :   0.8027 B(  7-H ,  8-H ) :   0.1081
B(  7-H ,  9-H ) :   0.1107 B(  8-H ,  9-H ) :   0.1342 B( 15-C , 17-H ) :   0.6867
B( 15-C , 18-H ) :   0.8442 B( 15-C , 19-H ) :   0.5354 B( 15-C , 20-P ) :   0.1264
B( 17-H , 19-H ) :   0.1265 B( 18-H , 19-H ) :   0.1180 B( 20-P , 21-H ) :   0.8800
B( 20-P , 22-H ) :   0.8946 B( 20-P , 23-H ) :   0.9169

Dispersion correction           -0.003355326
FINAL SINGLE POINT ENERGY      -721.114851193556

DIPOLE MOMENT
-------------
                                X             Y             Z
Electronic contribution:      4.78043       6.83538     -17.58501
Nuclear contribution   :     -4.43915      -6.73459      18.18954
                        -----------------------------------------
Total Dipole Moment    :      0.34128       0.10078       0.60453
                        -----------------------------------------
Magnitude (a.u.)       :      0.70149
Magnitude (Debye)      :      1.78305

Rotational constants in cm-1:     0.054508     0.031967     0.031168
Rotational constants in MHz :  1634.105298   958.356108   934.407674

                             ****ORCA TERMINATED NORMALLY****
TOTAL RUN TIME: 0 days 0 hours 3 minutes 16 seconds 122 msec
