                         Program Version 4.2.0 -  RELEASE  -
|  1> #
|  2> # TMD05_Cl M06-D3/Def2-TZVPPD
|  3> #
|  4> ! m06 d3zero def2-tzvppd def2/jk grid4 nofinalgrid
|  5>
|  6> *xyz 0 2
|  7> Cl       0.000000    0.000000    0.000000
|  8> *
|  9>
| 10> %maxcore 5000
| 11>
| 12> %pal
| 13> nprocs = 24
| 14> end
| 15>
| 16>
| 17>                          ****END OF INPUT****

CARTESIAN COORDINATES (ANGSTROEM)
---------------------------------
  Cl     0.000000    0.000000    0.000000

 Total Charge           Charge          ....    0
 Multiplicity           Mult            ....    2
 Number of Electrons    NEL             ....   17
 Basis Dimension        Dim             ....   51

ORBITAL ENERGIES
----------------
                 SPIN UP ORBITALS
  NO   OCC          E(Eh)            E(eV)
   0   1.0000    -101.765748     -2769.1868
   1   1.0000      -9.637343      -262.2454
   2   1.0000      -7.356775      -200.1880
   3   1.0000      -7.335801      -199.6173
   4   1.0000      -7.335801      -199.6173
   5   1.0000      -0.866853       -23.5883
   6   1.0000      -0.408974       -11.1288
   7   1.0000      -0.369669       -10.0592
   8   1.0000      -0.369669       -10.0592
   9   0.0000       0.003326         0.0905
  10   0.0000       0.014510         0.3948
  11   0.0000       0.014510         0.3948
  12   0.0000       0.047325         1.2878
  13   0.0000       0.153512         4.1773

                 SPIN DOWN ORBITALS
  NO   OCC          E(Eh)            E(eV)
   0   1.0000    -101.759507     -2769.0170
   1   1.0000      -9.631797      -262.0945
   2   1.0000      -7.338232      -199.6834
   3   1.0000      -7.331539      -199.5013
   4   1.0000      -7.331539      -199.5013
   5   1.0000      -0.805952       -21.9311
   6   1.0000      -0.342556        -9.3214
   7   1.0000      -0.342553        -9.3214
   8   0.0000      -0.235936        -6.4201
   9   0.0000       0.015110         0.4112
  10   0.0000       0.015112         0.4112
  11   0.0000       0.023245         0.6325
  12   0.0000       0.054304         1.4777

MULLIKEN ATOMIC CHARGES AND SPIN POPULATIONS
--------------------------------------------
   0 Cl:    0.000000    1.000000
Sum of atomic charges         :    0.0000000

LOEWDIN ATOMIC CHARGES AND SPIN POPULATIONS
-------------------------------------------
   0 Cl:   -0.000000    1.000000

Dispersion correction            0.000000000
FINAL SINGLE POINT ENERGY      -460.130908401248

DIPOLE MOMENT
-------------
                                X             Y             Z
Electronic contribution:      0.00000      -0.00000      -0.00000
Nuclear contribution   :      0.00000       0.00000       0.00000
                        -----------------------------------------
Total Dipole Moment    :      0.00000      -0.00000      -0.00000
                        -----------------------------------------
Magnitude (a.u.)       :      0.00000
Magnitude (Debye)      :      0.00000

Rotational constants in cm-1:     0.000000     0.000000     0.000000
Rotational constants in MHz :     0.000000     0.000000     0.000000

                             ****ORCA TERMINATED NORMALLY****
TOTAL RUN TIME: 0 days 0 hours 0 minutes 3 seconds 27 msec
