                         Program Version 4.2.0 -  RELEASE  -
|  1> #
|  2> # TMD06_Br M06-D3/Def2-TZVPPD
|  3> #
|  4> ! m06 d3zero def2-tzvppd def2/jk grid4 nofinalgrid
|  5>
|  6> *xyz 0 2
|  7> Br       0.000000    0.000000    0.000000
|  8> *
|  9>
| 10> %maxcore 5000
| 11>
| 12> %pal
| 13> nprocs = 24
| 14> end
| 15>
| 16>
| 17>                          ****END OF INPUT****

CARTESIAN COORDINATES (ANGSTROEM)
---------------------------------
  Br     0.000000    0.000000    0.000000

 Total Charge           Charge          ....    0
 Multiplicity           Mult            ....    2
 Number of Electrons    NEL             ....   35
 Basis Dimension        Dim             ....   57

ORBITAL ENERGIES
----------------
                 SPIN UP ORBITALS
  NO   OCC          E(Eh)            E(eV)
   0   1.0000    -483.214104    -13148.9243
   1   1.0000     -62.845541     -1710.1141
   2   1.0000     -56.558071     -1539.0234
   3   1.0000     -56.550194     -1538.8090
   4   1.0000     -56.550194     -1538.8090
   5   1.0000      -8.879971      -241.6363
   6   1.0000      -6.666561      -181.4063
   7   1.0000      -6.646059      -180.8484
   8   1.0000      -6.646059      -180.8484
   9   1.0000      -2.723366       -74.1066
  10   1.0000      -2.718361       -73.9704
  11   1.0000      -2.718361       -73.9704
  12   1.0000      -2.702965       -73.5514
  13   1.0000      -2.702965       -73.5514
  14   1.0000      -0.814085       -22.1524
  15   1.0000      -0.379164       -10.3176
  16   1.0000      -0.335472        -9.1287
  17   1.0000      -0.335472        -9.1287
  18   0.0000      -0.007290        -0.1984
  19   0.0000       0.003117         0.0848
  20   0.0000       0.003117         0.0848
  21   0.0000       0.033276         0.9055
  22   0.0000       0.103996         2.8299

                 SPIN DOWN ORBITALS
  NO   OCC          E(Eh)            E(eV)
   0   1.0000    -483.211737    -13148.8598
   1   1.0000     -62.843660     -1710.0629
   2   1.0000     -56.551961     -1538.8571
   3   1.0000     -56.548465     -1538.7620
   4   1.0000     -56.548465     -1538.7620
   5   1.0000      -8.878004      -241.5828
   6   1.0000      -6.659717      -181.2201
   7   1.0000      -6.644531      -180.8069
   8   1.0000      -6.644531      -180.8069
   9   1.0000      -2.717928       -73.9586
  10   1.0000      -2.715015       -73.8793
  11   1.0000      -2.715015       -73.8793
  12   1.0000      -2.701556       -73.5131
  13   1.0000      -2.701556       -73.5131
  14   1.0000      -0.764791       -20.8110
  15   1.0000      -0.318139        -8.6570
  16   1.0000      -0.318139        -8.6570
  17   0.0000      -0.217964        -5.9311
  18   0.0000       0.005553         0.1511
  19   0.0000       0.005554         0.1511
  20   0.0000       0.012913         0.3514
  21   0.0000       0.040603         1.1049

MULLIKEN ATOMIC CHARGES AND SPIN POPULATIONS
--------------------------------------------
   0 Br:   -0.000000    1.000000
Sum of atomic charges         :   -0.0000000

LOEWDIN ATOMIC CHARGES AND SPIN POPULATIONS
-------------------------------------------
   0 Br:   -0.000000    1.000000

Dispersion correction            0.000000000
FINAL SINGLE POINT ENERGY     -2574.023562946978

DIPOLE MOMENT
-------------
                                X             Y             Z
Electronic contribution:      0.00000       0.00000       0.00000
Nuclear contribution   :      0.00000       0.00000       0.00000
                        -----------------------------------------
Total Dipole Moment    :      0.00000       0.00000       0.00000
                        -----------------------------------------
Magnitude (a.u.)       :      0.00000
Magnitude (Debye)      :      0.00000

Rotational constants in cm-1:     0.000000     0.000000     0.000000
Rotational constants in MHz :     0.000000     0.000000     0.000000

                             ****ORCA TERMINATED NORMALLY****
TOTAL RUN TIME: 0 days 0 hours 0 minutes 3 seconds 203 msec
