                         Program Version 4.2.0 -  RELEASE  -
|  1> #
|  2> # TMD02_O M06-D3/Def2-TZVPPD
|  3> #
|  4> ! m06 d3zero def2-tzvppd def2/jk grid4 nofinalgrid
|  5>
|  6> *xyz 0 3
|  7> O        0.000000    0.000000    0.000000
|  8> *
|  9>
| 10> %maxcore 5000
| 11>
| 12> %pal
| 13> nprocs = 24
| 14> end
| 15>
| 16>
| 17>                          ****END OF INPUT****

CARTESIAN COORDINATES (ANGSTROEM)
---------------------------------
  O      0.000000    0.000000    0.000000

 Total Charge           Charge          ....    0
 Multiplicity           Mult            ....    3
 Number of Electrons    NEL             ....    8
 Basis Dimension        Dim             ....   40

ORBITAL ENERGIES
----------------
                 SPIN UP ORBITALS
  NO   OCC          E(Eh)            E(eV)
   0   1.0000     -19.351044      -526.5687
   1   1.0000      -1.046768       -28.4840
   2   1.0000      -0.470906       -12.8140
   3   1.0000      -0.470905       -12.8140
   4   1.0000      -0.412351       -11.2206
   5   0.0000       0.025452         0.6926
   6   0.0000       0.025452         0.6926
   7   0.0000       0.028235         0.7683
   8   0.0000       0.040618         1.1053
   9   0.0000       0.336512         9.1569

                 SPIN DOWN ORBITALS
  NO   OCC          E(Eh)            E(eV)
   0   1.0000     -19.304667      -525.3067
   1   1.0000      -0.865179       -23.5427
   2   1.0000      -0.343220        -9.3395
   3   0.0000      -0.148064        -4.0290
   4   0.0000      -0.148053        -4.0287
   5   0.0000       0.042952         1.1688
   6   0.0000       0.049846         1.3564
   7   0.0000       0.063827         1.7368

MULLIKEN ATOMIC CHARGES AND SPIN POPULATIONS
--------------------------------------------
   0 O :   -0.000000    2.000000
Sum of atomic charges         :   -0.0000000

LOEWDIN ATOMIC CHARGES AND SPIN POPULATIONS
-------------------------------------------
   0 O :   -0.000000    2.000000

Dispersion correction            0.000000000
FINAL SINGLE POINT ENERGY       -75.061711776291

DIPOLE MOMENT
-------------
                                X             Y             Z
Electronic contribution:     -0.00000       0.00000      -0.00000
Nuclear contribution   :      0.00000       0.00000       0.00000
                        -----------------------------------------
Total Dipole Moment    :     -0.00000       0.00000      -0.00000
                        -----------------------------------------
Magnitude (a.u.)       :      0.00000
Magnitude (Debye)      :      0.00000

Rotational constants in cm-1:     0.000000     0.000000     0.000000
Rotational constants in MHz :     0.000000     0.000000     0.000000

                             ****ORCA TERMINATED NORMALLY****
TOTAL RUN TIME: 0 days 0 hours 0 minutes 3 seconds 81 msec
