                         Program Version 4.2.0 -  RELEASE  -
|  1> #
|  2> # TMD08_V M06-D3/Def2-TZVPPD
|  3> #
|  4> ! m06 d3zero def2-tzvppd def2/jk grid4 nofinalgrid
|  5>
|  6> *xyz 0 4
|  7> V        0.000000    0.000000    0.000000
|  8> *
|  9>
| 10> %maxcore 5000
| 11>
| 12> %pal
| 13> nprocs = 24
| 14> end
| 15>
| 16>
| 17>                          ****END OF INPUT****

CARTESIAN COORDINATES (ANGSTROEM)
---------------------------------
  V      0.000000    0.000000    0.000000

 Total Charge           Charge          ....    0
 Multiplicity           Mult            ....    4
 Number of Electrons    NEL             ....   23
 Basis Dimension        Dim             ....   67

ORBITAL ENERGIES
----------------
                 SPIN UP ORBITALS
  NO   OCC          E(Eh)            E(eV)
   0   1.0000    -197.105364     -5363.5096
   1   1.0000     -22.422289      -610.1415
   2   1.0000     -18.851289      -512.9696
   3   1.0000     -18.851149      -512.9659
   4   1.0000     -18.849134      -512.9110
   5   1.0000      -2.697626       -73.4061
   6   1.0000      -1.717297       -46.7300
   7   1.0000      -1.717176       -46.7267
   8   1.0000      -1.714569       -46.6558
   9   1.0000      -0.246359        -6.7038
  10   1.0000      -0.245005        -6.6669
  11   1.0000      -0.244989        -6.6665
  12   1.0000      -0.187958        -5.1146
  13   0.0000      -0.105834        -2.8799
  14   0.0000      -0.090249        -2.4558
  15   0.0000      -0.030555        -0.8314
  16   0.0000      -0.030490        -0.8297
  17   0.0000      -0.029654        -0.8069

                 SPIN DOWN ORBITALS
  NO   OCC          E(Eh)            E(eV)
   0   1.0000    -197.105525     -5363.5140
   1   1.0000     -22.387242      -609.1878
   2   1.0000     -18.818579      -512.0796
   3   1.0000     -18.818374      -512.0740
   4   1.0000     -18.814175      -511.9597
   5   1.0000      -2.594363       -70.5962
   6   1.0000      -1.600962       -43.5644
   7   1.0000      -1.600560       -43.5534
   8   1.0000      -1.586140       -43.1611
   9   1.0000      -0.177122        -4.8197
  10   0.0000      -0.049370        -1.3434
  11   0.0000      -0.038102        -1.0368
  12   0.0000      -0.038041        -1.0351
  13   0.0000      -0.036440        -0.9916
  14   0.0000      -0.033562        -0.9133

MULLIKEN ATOMIC CHARGES AND SPIN POPULATIONS
--------------------------------------------
   0 V :    0.000000    3.000000
Sum of atomic charges         :    0.0000000

LOEWDIN ATOMIC CHARGES AND SPIN POPULATIONS
-------------------------------------------
   0 V :    0.000000    3.000000

Dispersion correction            0.000000000
FINAL SINGLE POINT ENERGY      -943.835110775478

DIPOLE MOMENT
-------------
                                X             Y             Z
Electronic contribution:     -0.00000       0.00000      -0.00000
Nuclear contribution   :      0.00000       0.00000       0.00000
                        -----------------------------------------
Total Dipole Moment    :     -0.00000       0.00000      -0.00000
                        -----------------------------------------
Magnitude (a.u.)       :      0.00000
Magnitude (Debye)      :      0.00000

Rotational constants in cm-1:     0.000000     0.000000     0.000000
Rotational constants in MHz :     0.000000     0.000000     0.000000

                             ****ORCA TERMINATED NORMALLY****
TOTAL RUN TIME: 0 days 0 hours 0 minutes 9 seconds 757 msec
