                         Program Version 4.2.0 -  RELEASE  -
|  1> #
|  2> # TMD07_Ti M06-D3/Def2-TZVPPD
|  3> #
|  4> ! m06 d3zero def2-tzvppd def2/jk grid4 nofinalgrid
|  5>
|  6> *xyz 0 3
|  7> Ti       0.000000    0.000000    0.000000
|  8> *
|  9>
| 10> %maxcore 5000
| 11>
| 12> %pal
| 13> nprocs = 24
| 14> end
| 15>
| 16>
| 17>                          ****END OF INPUT****

CARTESIAN COORDINATES (ANGSTROEM)
---------------------------------
  Ti     0.000000    0.000000    0.000000

 Total Charge           Charge          ....    0
 Multiplicity           Mult            ....    3
 Number of Electrons    NEL             ....   22
 Basis Dimension        Dim             ....   67

ORBITAL ENERGIES
----------------
                 SPIN UP ORBITALS
  NO   OCC          E(Eh)            E(eV)
   0   1.0000    -179.112022     -4873.8859
   1   1.0000     -20.074066      -546.2431
   2   1.0000     -16.717309      -454.9011
   3   1.0000     -16.716203      -454.8710
   4   1.0000     -16.706178      -454.5982
   5   1.0000      -2.428611       -66.0859
   6   1.0000      -1.533239       -41.7215
   7   1.0000      -1.530695       -41.6523
   8   1.0000      -1.518771       -41.3279
   9   1.0000      -0.216980        -5.9043
  10   1.0000      -0.214907        -5.8479
  11   1.0000      -0.177973        -4.8429
  12   0.0000      -0.093136        -2.5344
  13   0.0000      -0.083322        -2.2673
  14   0.0000      -0.067986        -1.8500
  15   0.0000      -0.036306        -0.9879
  16   0.0000      -0.035715        -0.9719

                 SPIN DOWN ORBITALS
  NO   OCC          E(Eh)            E(eV)
   0   1.0000    -179.111629     -4873.8752
   1   1.0000     -20.058676      -545.8243
   2   1.0000     -16.703105      -454.5146
   3   1.0000     -16.702697      -454.5035
   4   1.0000     -16.685657      -454.0398
   5   1.0000      -2.362598       -64.2896
   6   1.0000      -1.466990       -39.9188
   7   1.0000      -1.463193       -39.8155
   8   1.0000      -1.428676       -38.8762
   9   1.0000      -0.175557        -4.7771
  10   0.0000      -0.064420        -1.7530
  11   0.0000      -0.062029        -1.6879
  12   0.0000      -0.047122        -1.2822
  13   0.0000      -0.042178        -1.1477
  14   0.0000      -0.040695        -1.1074

MULLIKEN ATOMIC CHARGES AND SPIN POPULATIONS
--------------------------------------------
   0 Ti:   -0.000000    2.000000
Sum of atomic charges         :   -0.0000000

LOEWDIN ATOMIC CHARGES AND SPIN POPULATIONS
-------------------------------------------
   0 Ti:   -0.000000    2.000000

Dispersion correction            0.000000000
FINAL SINGLE POINT ENERGY      -849.290759115579

DIPOLE MOMENT
-------------
                                X             Y             Z
Electronic contribution:     -0.00000      -0.00000      -0.00000
Nuclear contribution   :      0.00000       0.00000       0.00000
                        -----------------------------------------
Total Dipole Moment    :     -0.00000      -0.00000      -0.00000
                        -----------------------------------------
Magnitude (a.u.)       :      0.00000
Magnitude (Debye)      :      0.00000

Rotational constants in cm-1:     0.000000     0.000000     0.000000
Rotational constants in MHz :     0.000000     0.000000     0.000000

                             ****ORCA TERMINATED NORMALLY****
TOTAL RUN TIME: 0 days 0 hours 0 minutes 13 seconds 40 msec
