                         Program Version 4.2.0 -  RELEASE  -
|  1> #
|  2> # TMD09_Cr M06-D3/Def2-TZVPPD
|  3> #
|  4> ! m06 d3zero def2-tzvppd def2/jk grid4 nofinalgrid
|  5>
|  6> *xyz 0 7
|  7> Cr       0.000000    0.000000    0.000000
|  8> *
|  9>
| 10> %maxcore 5000
| 11>
| 12> %pal
| 13> nprocs = 24
| 14> end
| 15>
| 16>
| 17>                          ****END OF INPUT****

CARTESIAN COORDINATES (ANGSTROEM)
---------------------------------
  Cr     0.000000    0.000000    0.000000

 Total Charge           Charge          ....    0
 Multiplicity           Mult            ....    7
 Number of Electrons    NEL             ....   24
 Basis Dimension        Dim             ....   67

ORBITAL ENERGIES
----------------
                 SPIN UP ORBITALS
  NO   OCC          E(Eh)            E(eV)
   0   1.0000    -215.854340     -5873.6952
   1   1.0000     -24.771851      -674.0763
   2   1.0000     -20.992112      -571.2244
   3   1.0000     -20.992112      -571.2244
   4   1.0000     -20.992112      -571.2244
   5   1.0000      -2.905783       -79.0704
   6   1.0000      -1.839052       -50.0432
   7   1.0000      -1.839052       -50.0432
   8   1.0000      -1.839052       -50.0432
   9   1.0000      -0.192979        -5.2512
  10   1.0000      -0.192979        -5.2512
  11   1.0000      -0.192979        -5.2512
  12   1.0000      -0.192979        -5.2512
  13   1.0000      -0.192979        -5.2512
  14   1.0000      -0.171889        -4.6773
  15   0.0000      -0.034569        -0.9407
  16   0.0000      -0.034569        -0.9407
  17   0.0000      -0.034569        -0.9407
  18   0.0000       0.035264         0.9596
  19   0.0000       0.035264         0.9596

                 SPIN DOWN ORBITALS
  NO   OCC          E(Eh)            E(eV)
   0   1.0000    -215.852246     -5873.6382
   1   1.0000     -24.724729      -672.7941
   2   1.0000     -20.945817      -569.9647
   3   1.0000     -20.945817      -569.9647
   4   1.0000     -20.945817      -569.9647
   5   1.0000      -2.706518       -73.6481
   6   1.0000      -1.625215       -44.2244
   7   1.0000      -1.625215       -44.2244
   8   1.0000      -1.625215       -44.2244
   9   0.0000      -0.002816        -0.0766
  10   0.0000       0.034467         0.9379
  11   0.0000       0.034470         0.9380
  12   0.0000       0.034471         0.9380
  13   0.0000       0.102000         2.7756

MULLIKEN ATOMIC CHARGES AND SPIN POPULATIONS
--------------------------------------------
   0 Cr:    0.000000    6.000000
Sum of atomic charges         :    0.0000000

LOEWDIN ATOMIC CHARGES AND SPIN POPULATIONS
-------------------------------------------
   0 Cr:    0.000000    6.000000

Dispersion correction            0.000000000
FINAL SINGLE POINT ENERGY     -1044.367207148011

DIPOLE MOMENT
-------------
                                X             Y             Z
Electronic contribution:      0.00000       0.00000      -0.00000
Nuclear contribution   :      0.00000       0.00000       0.00000
                        -----------------------------------------
Total Dipole Moment    :      0.00000       0.00000      -0.00000
                        -----------------------------------------
Magnitude (a.u.)       :      0.00000
Magnitude (Debye)      :      0.00000

Rotational constants in cm-1:     0.000000     0.000000     0.000000
Rotational constants in MHz :     0.000000     0.000000     0.000000

                             ****ORCA TERMINATED NORMALLY****
TOTAL RUN TIME: 0 days 0 hours 0 minutes 3 seconds 395 msec
