                         Program Version 4.2.0 -  RELEASE  -
|  1> #
|  2> # TMD03_F M06-D3/Def2-TZVPPD
|  3> #
|  4> ! m06 d3zero def2-tzvppd def2/jk grid4 nofinalgrid
|  5>
|  6> *xyz 0 2
|  7> F        0.000000    0.000000    0.000000
|  8> *
|  9>
| 10> %maxcore 5000
| 11>
| 12> %pal
| 13> nprocs = 24
| 14> end
| 15>
| 16>
| 17>                          ****END OF INPUT****

CARTESIAN COORDINATES (ANGSTROEM)
---------------------------------
  F      0.000000    0.000000    0.000000

 Total Charge           Charge          ....    0
 Multiplicity           Mult            ....    2
 Number of Electrons    NEL             ....    9
 Basis Dimension        Dim             ....   40

ORBITAL ENERGIES
----------------
                 SPIN UP ORBITALS
  NO   OCC          E(Eh)            E(eV)
   0   1.0000     -24.876795      -676.9320
   1   1.0000      -1.272052       -34.6143
   2   1.0000      -0.573729       -15.6119
   3   1.0000      -0.503610       -13.7039
   4   1.0000      -0.503609       -13.7039
   5   0.0000       0.042221         1.1489
   6   0.0000       0.055150         1.5007
   7   0.0000       0.055151         1.5007
   8   0.0000       0.067946         1.8489
   9   0.0000       0.455767        12.4020

                 SPIN DOWN ORBITALS
  NO   OCC          E(Eh)            E(eV)
   0   1.0000     -24.853178      -676.2894
   1   1.0000      -1.150220       -31.2991
   2   1.0000      -0.454223       -12.3600
   3   1.0000      -0.454200       -12.3594
   4   0.0000      -0.242343        -6.5945
   5   0.0000       0.053514         1.4562
   6   0.0000       0.053515         1.4562
   7   0.0000       0.065363         1.7786
   8   0.0000       0.075179         2.0457

MULLIKEN ATOMIC CHARGES AND SPIN POPULATIONS
--------------------------------------------
   0 F :   -0.000000    1.000000
Sum of atomic charges         :   -0.0000000

LOEWDIN ATOMIC CHARGES AND SPIN POPULATIONS
-------------------------------------------
   0 F :   -0.000000    1.000000

Dispersion correction            0.000000000
FINAL SINGLE POINT ENERGY       -99.735020185955

DIPOLE MOMENT
-------------
                                X             Y             Z
Electronic contribution:     -0.00000       0.00000      -0.00000
Nuclear contribution   :      0.00000       0.00000       0.00000
                        -----------------------------------------
Total Dipole Moment    :     -0.00000       0.00000      -0.00000
                        -----------------------------------------
Magnitude (a.u.)       :      0.00000
Magnitude (Debye)      :      0.00000

Rotational constants in cm-1:     0.000000     0.000000     0.000000
Rotational constants in MHz :     0.000000     0.000000     0.000000

                             ****ORCA TERMINATED NORMALLY****
TOTAL RUN TIME: 0 days 0 hours 0 minutes 3 seconds 18 msec
