                         Program Version 4.2.0 -  RELEASE  -
|  1> #
|  2> # TMD04_S M06-D3/Def2-TZVPPD
|  3> #
|  4> ! m06 d3zero def2-tzvppd def2/jk grid4 nofinalgrid
|  5>
|  6> *xyz 0 3
|  7> S        0.000000    0.000000    0.000000
|  8> *
|  9>
| 10> %maxcore 5000
| 11>
| 12> %pal
| 13> nprocs = 24
| 14> end
| 15>
| 16>
| 17>                          ****END OF INPUT****

CARTESIAN COORDINATES (ANGSTROEM)
---------------------------------
  S      0.000000    0.000000    0.000000

 Total Charge           Charge          ....    0
 Multiplicity           Mult            ....    3
 Number of Electrons    NEL             ....   16
 Basis Dimension        Dim             ....   51

ORBITAL ENERGIES
----------------
                 SPIN UP ORBITALS
  NO   OCC          E(Eh)            E(eV)
   0   1.0000     -89.086280     -2424.1609
   1   1.0000      -8.100675      -220.4306
   2   1.0000      -6.025052      -163.9500
   3   1.0000      -6.025052      -163.9500
   4   1.0000      -6.006609      -163.4481
   5   1.0000      -0.737111       -20.0578
   6   1.0000      -0.334697        -9.1076
   7   1.0000      -0.334697        -9.1076
   8   1.0000      -0.301651        -8.2083
   9   0.0000      -0.006294        -0.1713
  10   0.0000      -0.006294        -0.1713
  11   0.0000       0.006037         0.1643
  12   0.0000       0.025376         0.6905
  13   0.0000       0.113318         3.0835

                 SPIN DOWN ORBITALS
  NO   OCC          E(Eh)            E(eV)
   0   1.0000     -89.077259     -2423.9154
   1   1.0000      -8.088405      -220.0967
   2   1.0000      -6.003851      -163.3731
   3   1.0000      -6.003851      -163.3731
   4   1.0000      -5.997242      -163.1932
   5   1.0000      -0.639310       -17.3965
   6   1.0000      -0.264596        -7.2000
   7   0.0000      -0.162360        -4.4180
   8   0.0000      -0.162359        -4.4180
   9   0.0000       0.012176         0.3313
  10   0.0000       0.027579         0.7505
  11   0.0000       0.027640         0.7521

MULLIKEN ATOMIC CHARGES AND SPIN POPULATIONS
--------------------------------------------
   0 S :   -0.000000    2.000000
Sum of atomic charges         :   -0.0000000

LOEWDIN ATOMIC CHARGES AND SPIN POPULATIONS
-------------------------------------------
   0 S :    0.000000    2.000000

Dispersion correction            0.000000000
FINAL SINGLE POINT ENERGY      -398.091867575738

DIPOLE MOMENT
-------------
                                X             Y             Z
Electronic contribution:     -0.00000       0.00000      -0.00000
Nuclear contribution   :      0.00000       0.00000       0.00000
                        -----------------------------------------
Total Dipole Moment    :     -0.00000       0.00000      -0.00000
                        -----------------------------------------
Magnitude (a.u.)       :      0.00000
Magnitude (Debye)      :      0.00000

Rotational constants in cm-1:     0.000000     0.000000     0.000000
Rotational constants in MHz :     0.000000     0.000000     0.000000

                             ****ORCA TERMINATED NORMALLY****
TOTAL RUN TIME: 0 days 0 hours 0 minutes 2 seconds 999 msec
