                         Program Version 4.2.0 -  RELEASE  -
|  1> #
|  2> # TMD13_Cu M06-D3/Def2-TZVPPD
|  3> #
|  4> ! m06 d3zero def2-tzvppd def2/jk grid4 nofinalgrid
|  5>
|  6> *xyz 0 2
|  7> Cu       0.000000    0.000000    0.000000
|  8> *
|  9>
| 10> %maxcore 5000
| 11>
| 12> %pal
| 13> nprocs = 24
| 14> end
| 15>
| 16>
| 17>                          ****END OF INPUT****

CARTESIAN COORDINATES (ANGSTROEM)
---------------------------------
  Cu     0.000000    0.000000    0.000000

 Total Charge           Charge          ....    0
 Multiplicity           Mult            ....    2
 Number of Electrons    NEL             ....   29
 Basis Dimension        Dim             ....   67

ORBITAL ENERGIES
----------------
                 SPIN UP ORBITALS
  NO   OCC          E(Eh)            E(eV)
   0   1.0000    -323.257424     -8796.2817
   1   1.0000     -39.032295     -1062.1227
   2   1.0000     -34.145043      -929.1339
   3   1.0000     -34.145043      -929.1339
   4   1.0000     -34.145043      -929.1339
   5   1.0000      -4.379696      -119.1776
   6   1.0000      -2.833074       -77.0919
   7   1.0000      -2.833074       -77.0919
   8   1.0000      -2.833074       -77.0919
   9   1.0000      -0.284248        -7.7348
  10   1.0000      -0.284248        -7.7348
  11   1.0000      -0.284248        -7.7348
  12   1.0000      -0.284248        -7.7348
  13   1.0000      -0.284248        -7.7348
  14   1.0000      -0.202584        -5.5126
  15   0.0000      -0.029202        -0.7946
  16   0.0000      -0.029202        -0.7946
  17   0.0000      -0.029202        -0.7946
  18   0.0000       0.061510         1.6738
  19   0.0000       0.080056         2.1784

                 SPIN DOWN ORBITALS
  NO   OCC          E(Eh)            E(eV)
   0   1.0000    -323.255795     -8796.2374
   1   1.0000     -39.031397     -1062.0983
   2   1.0000     -34.144345      -929.1149
   3   1.0000     -34.144345      -929.1149
   4   1.0000     -34.144345      -929.1149
   5   1.0000      -4.377126      -119.1076
   6   1.0000      -2.831798       -77.0571
   7   1.0000      -2.831798       -77.0571
   8   1.0000      -2.831798       -77.0571
   9   1.0000      -0.281769        -7.6673
  10   1.0000      -0.281769        -7.6673
  11   1.0000      -0.281769        -7.6673
  12   1.0000      -0.281769        -7.6673
  13   1.0000      -0.281769        -7.6673
  14   0.0000      -0.116459        -3.1690
  15   0.0000       0.008697         0.2367
  16   0.0000       0.008697         0.2367
  17   0.0000       0.008697         0.2367
  18   0.0000       0.113375         3.0851

MULLIKEN ATOMIC CHARGES AND SPIN POPULATIONS
--------------------------------------------
   0 Cu:   -0.000000    1.000000
Sum of atomic charges         :   -0.0000000

LOEWDIN ATOMIC CHARGES AND SPIN POPULATIONS
-------------------------------------------
   0 Cu:   -0.000000    1.000000

Dispersion correction            0.000000000
FINAL SINGLE POINT ENERGY     -1640.454291062327

DIPOLE MOMENT
-------------
                                X             Y             Z
Electronic contribution:     -0.00000       0.00000      -0.00000
Nuclear contribution   :      0.00000       0.00000       0.00000
                        -----------------------------------------
Total Dipole Moment    :     -0.00000       0.00000      -0.00000
                        -----------------------------------------
Magnitude (a.u.)       :      0.00000
Magnitude (Debye)      :      0.00000

Rotational constants in cm-1:     0.000000     0.000000     0.000000
Rotational constants in MHz :     0.000000     0.000000     0.000000

                             ****ORCA TERMINATED NORMALLY****
TOTAL RUN TIME: 0 days 0 hours 0 minutes 2 seconds 985 msec
