                         Program Version 4.2.0 -  RELEASE  -
|  1> #
|  2> # TMD14_Zn M06-D3/Def2-TZVPPD
|  3> #
|  4> ! m06 d3zero def2-tzvppd def2/jk grid4 nofinalgrid
|  5>
|  6> *xyz 0 1
|  7> Zn       0.000000    0.000000    0.000000
|  8> *
|  9>
| 10> %maxcore 5000
| 11>
| 12> %pal
| 13> nprocs = 24
| 14> end
| 15>
| 16>
| 17>                          ****END OF INPUT****

CARTESIAN COORDINATES (ANGSTROEM)
---------------------------------
  Zn     0.000000    0.000000    0.000000

 Total Charge           Charge          ....    0
 Multiplicity           Mult            ....    1
 Number of Electrons    NEL             ....   30
 Basis Dimension        Dim             ....   67

ORBITAL ENERGIES
----------------

  NO   OCC          E(Eh)            E(eV)
   0   2.0000    -347.530004     -9456.7722
   1   2.0000     -42.451200     -1155.1559
   2   2.0000     -37.331622     -1015.8451
   3   2.0000     -37.331622     -1015.8451
   4   2.0000     -37.331622     -1015.8451
   5   2.0000      -4.913996      -133.7166
   6   2.0000      -3.262354       -88.7732
   7   2.0000      -3.262354       -88.7732
   8   2.0000      -3.262354       -88.7732
   9   2.0000      -0.495966       -13.4959
  10   2.0000      -0.495966       -13.4959
  11   2.0000      -0.495966       -13.4959
  12   2.0000      -0.495966       -13.4959
  13   2.0000      -0.495966       -13.4959
  14   2.0000      -0.250757        -6.8234
  15   0.0000      -0.032994        -0.8978
  16   0.0000      -0.032993        -0.8978
  17   0.0000      -0.032993        -0.8978
  18   0.0000       0.026997         0.7346
  19   0.0000       0.026999         0.7347

MULLIKEN ATOMIC CHARGES
-----------------------
   0 Zn:   -0.000000
Sum of atomic charges:   -0.0000000

LOEWDIN ATOMIC CHARGES
----------------------
   0 Zn:   -0.000000

Dispersion correction            0.000000000
FINAL SINGLE POINT ENERGY     -1779.372380309951

DIPOLE MOMENT
-------------
                                X             Y             Z
Electronic contribution:      0.00000      -0.00000       0.00000
Nuclear contribution   :      0.00000       0.00000       0.00000
                        -----------------------------------------
Total Dipole Moment    :      0.00000      -0.00000       0.00000
                        -----------------------------------------
Magnitude (a.u.)       :      0.00000
Magnitude (Debye)      :      0.00000

Rotational constants in cm-1:     0.000000     0.000000     0.000000
Rotational constants in MHz :     0.000000     0.000000     0.000000

                             ****ORCA TERMINATED NORMALLY****
TOTAL RUN TIME: 0 days 0 hours 0 minutes 3 seconds 439 msec
