                         Program Version 4.2.0 -  RELEASE  -
|  1> #
|  2> # TMD10_Mn M06-D3/Def2-TZVPPD
|  3> #
|  4> ! m06 d3zero def2-tzvppd def2/jk grid4 nofinalgrid
|  5>
|  6> *xyz 0 6
|  7> Mn       0.000000    0.000000    0.000000
|  8> *
|  9>
| 10> %maxcore 5000
| 11>
| 12> %pal
| 13> nprocs = 24
| 14> end
| 15>
| 16>
| 17>                          ****END OF INPUT****

CARTESIAN COORDINATES (ANGSTROEM)
---------------------------------
  Mn     0.000000    0.000000    0.000000

 Total Charge           Charge          ....    0
 Multiplicity           Mult            ....    6
 Number of Electrons    NEL             ....   25
 Basis Dimension        Dim             ....   67

ORBITAL ENERGIES
----------------
                 SPIN UP ORBITALS
  NO   OCC          E(Eh)            E(eV)
   0   1.0000    -235.624149     -6411.6591
   1   1.0000     -27.415019      -746.0006
   2   1.0000     -23.433291      -637.6523
   3   1.0000     -23.412481      -637.0860
   4   1.0000     -23.412331      -637.0819
   5   1.0000      -3.212090       -87.4054
   6   1.0000      -2.084005       -56.7086
   7   1.0000      -2.038393       -55.4675
   8   1.0000      -2.038059       -55.4584
   9   1.0000      -0.252017        -6.8577
  10   1.0000      -0.244501        -6.6532
  11   1.0000      -0.244328        -6.6485
  12   1.0000      -0.221691        -6.0325
  13   1.0000      -0.204623        -5.5681
  14   1.0000      -0.179946        -4.8966
  15   0.0000      -0.032991        -0.8977
  16   0.0000      -0.027808        -0.7567
  17   0.0000      -0.027753        -0.7552
  18   0.0000       0.047661         1.2969
  19   0.0000       0.055013         1.4970

                 SPIN DOWN ORBITALS
  NO   OCC          E(Eh)            E(eV)
   0   1.0000    -235.621520     -6411.5875
   1   1.0000     -27.369783      -744.7696
   2   1.0000     -23.381901      -636.2539
   3   1.0000     -23.370507      -635.9438
   4   1.0000     -23.370411      -635.9412
   5   1.0000      -3.013821       -82.0102
   6   1.0000      -1.862287       -50.6754
   7   1.0000      -1.844054       -50.1793
   8   1.0000      -1.844044       -50.1790
   9   1.0000      -0.092487        -2.5167
  10   0.0000      -0.062988        -1.7140
  11   0.0000       0.008899         0.2422
  12   0.0000       0.009351         0.2545
  13   0.0000       0.021727         0.5912
  14   0.0000       0.047721         1.2986

MULLIKEN ATOMIC CHARGES AND SPIN POPULATIONS
--------------------------------------------
   0 Mn:    0.000000    5.000000
Sum of atomic charges         :    0.0000000

LOEWDIN ATOMIC CHARGES AND SPIN POPULATIONS
-------------------------------------------
   0 Mn:    0.000000    5.000000

Dispersion correction            0.000000000
FINAL SINGLE POINT ENERGY     -1150.849886532047

DIPOLE MOMENT
-------------
                                X             Y             Z
Electronic contribution:     -0.00000      -0.00000      -0.00000
Nuclear contribution   :      0.00000       0.00000       0.00000
                        -----------------------------------------
Total Dipole Moment    :     -0.00000      -0.00000      -0.00000
                        -----------------------------------------
Magnitude (a.u.)       :      0.00000
Magnitude (Debye)      :      0.00000

Rotational constants in cm-1:     0.000000     0.000000     0.000000
Rotational constants in MHz :     0.000000     0.000000     0.000000

                             ****ORCA TERMINATED NORMALLY****
TOTAL RUN TIME: 0 days 0 hours 0 minutes 5 seconds 80 msec
