                         Program Version 4.2.0 -  RELEASE  -
|  1> #
|  2> # TMD18_MnBr M06-D3/Def2-TZVPPD
|  3> #
|  4> ! m06 d3zero def2-tzvppd def2/jk grid4 nofinalgrid
|  5>
|  6> *xyz 0 7
|  7> Mn       0.000000    0.000000   -1.400000
|  8> Br       0.000000    0.000000    1.000000
|  9> *
| 10>
| 11> %maxcore 5000
| 12>
| 13> %pal
| 14> nprocs = 24
| 15> end
| 16>
| 17>
| 18>                          ****END OF INPUT****

CARTESIAN COORDINATES (ANGSTROEM)
---------------------------------
  Mn     0.000000    0.000000   -1.400000
  Br     0.000000    0.000000    1.000000

 Total Charge           Charge          ....    0
 Multiplicity           Mult            ....    7
 Number of Electrons    NEL             ....   60
 Basis Dimension        Dim             ....  124

ORBITAL ENERGIES
----------------
                 SPIN UP ORBITALS
  NO   OCC          E(Eh)            E(eV)
   0   1.0000    -483.138431    -13146.8651
   1   1.0000    -235.795206     -6416.3138
   2   1.0000     -62.771217     -1708.0917
   3   1.0000     -56.478344     -1536.8539
   4   1.0000     -56.477526     -1536.8316
   5   1.0000     -56.477526     -1536.8316
   6   1.0000     -27.610492      -751.3197
   7   1.0000     -23.613402      -642.5533
   8   1.0000     -23.613402      -642.5533
   9   1.0000     -23.611197      -642.4933
  10   1.0000      -8.807862      -239.6741
  11   1.0000      -6.582056      -179.1069
  12   1.0000      -6.579587      -179.0397
  13   1.0000      -6.579587      -179.0397
  14   1.0000      -3.415292       -92.9348
  15   1.0000      -2.642140       -71.8963
  16   1.0000      -2.641288       -71.8731
  17   1.0000      -2.641288       -71.8731
  18   1.0000      -2.639362       -71.8207
  19   1.0000      -2.639334       -71.8199
  20   1.0000      -2.256658       -61.4068
  21   1.0000      -2.256658       -61.4068
  22   1.0000      -2.249623       -61.2154
  23   1.0000      -0.752632       -20.4802
  24   1.0000      -0.423585       -11.5263
  25   1.0000      -0.419149       -11.4056
  26   1.0000      -0.419142       -11.4054
  27   1.0000      -0.417694       -11.3660
  28   1.0000      -0.417694       -11.3660
  29   1.0000      -0.329574        -8.9682
  30   1.0000      -0.286173        -7.7872
  31   1.0000      -0.286173        -7.7872
  32   1.0000      -0.200728        -5.4621
  33   0.0000      -0.049154        -1.3375
  34   0.0000      -0.049154        -1.3375
  35   0.0000      -0.022762        -0.6194
  36   0.0000       0.004005         0.1090
  37   0.0000       0.013587         0.3697

                 SPIN DOWN ORBITALS
  NO   OCC          E(Eh)            E(eV)
   0   1.0000    -483.137982    -13146.8529
   1   1.0000    -235.792008     -6416.2267
   2   1.0000     -62.770855     -1708.0818
   3   1.0000     -56.477651     -1536.8350
   4   1.0000     -56.477019     -1536.8178
   5   1.0000     -56.477019     -1536.8178
   6   1.0000     -27.550918      -749.6986
   7   1.0000     -23.554113      -640.9400
   8   1.0000     -23.554113      -640.9400
   9   1.0000     -23.551906      -640.8799
  10   1.0000      -8.807496      -239.6642
  11   1.0000      -6.581394      -179.0888
  12   1.0000      -6.579090      -179.0261
  13   1.0000      -6.579090      -179.0261
  14   1.0000      -3.168994       -86.2327
  15   1.0000      -2.641609       -71.8818
  16   1.0000      -2.640728       -71.8579
  17   1.0000      -2.640728       -71.8579
  18   1.0000      -2.638865       -71.8072
  19   1.0000      -2.638838       -71.8064
  20   1.0000      -1.999721       -54.4152
  21   1.0000      -1.999721       -54.4152
  22   1.0000      -1.994989       -54.2864
  23   1.0000      -0.744598       -20.2616
  24   1.0000      -0.332551        -9.0492
  25   1.0000      -0.289504        -7.8778
  26   1.0000      -0.289504        -7.8778
  27   0.0000      -0.086350        -2.3497
  28   0.0000      -0.070584        -1.9207
  29   0.0000      -0.070584        -1.9207
  30   0.0000      -0.061407        -1.6710
  31   0.0000      -0.061407        -1.6710

MULLIKEN ATOMIC CHARGES AND SPIN POPULATIONS
--------------------------------------------
   0 Mn:    0.321201    5.918619
   1 Br:   -0.321201    0.081381
Sum of atomic charges         :    0.0000000

LOEWDIN ATOMIC CHARGES AND SPIN POPULATIONS
-------------------------------------------
   0 Mn:    0.225189    5.699236
   1 Br:   -0.225189    0.300764

  Mayer bond orders larger than 0.100000
B(  0-Mn,  1-Br) :   0.7719

Dispersion correction           -0.000000393
FINAL SINGLE POINT ENERGY     -3725.046428140351

DIPOLE MOMENT
-------------
                                X             Y             Z
Electronic contribution:      0.00000       0.00000       1.28265
Nuclear contribution   :      0.00000       0.00000      -2.50917
                        -----------------------------------------
Total Dipole Moment    :      0.00000       0.00000      -1.22652
                        -----------------------------------------
Magnitude (a.u.)       :      1.22652
Magnitude (Debye)      :      3.11756

Rotational constants in cm-1:     0.000000     0.089900     0.089900
Rotational constants in MHz :     0.000000  2695.122005  2695.122005

                             ****ORCA TERMINATED NORMALLY****
TOTAL RUN TIME: 0 days 0 hours 0 minutes 5 seconds 714 msec
