                         Program Version 4.2.0 -  RELEASE  -
|  1> #
|  2> # TMD17_CrS M06-D3/Def2-TZVPPD
|  3> #
|  4> ! m06 d3zero def2-tzvppd def2/jk grid4 nofinalgrid
|  5>
|  6> *xyz 0 5
|  7> Cr       0.000000    0.000000    0.836000
|  8> S        0.000000    0.000000   -1.254000
|  9> *
| 10>
| 11> %maxcore 5000
| 12>
| 13> %pal
| 14> nprocs = 24
| 15> end
| 16>
| 17>
| 18>                          ****END OF INPUT****

CARTESIAN COORDINATES (ANGSTROEM)
---------------------------------
  Cr     0.000000    0.000000    0.836000
  S      0.000000    0.000000   -1.254000

 Total Charge           Charge          ....    0
 Multiplicity           Mult            ....    5
 Number of Electrons    NEL             ....   40
 Basis Dimension        Dim             ....  118

ORBITAL ENERGIES
----------------
                 SPIN UP ORBITALS
  NO   OCC          E(Eh)            E(eV)
   0   1.0000    -215.946976     -5876.2160
   1   1.0000     -88.980653     -2421.2867
   2   1.0000     -24.874177      -676.8608
   3   1.0000     -21.095267      -574.0314
   4   1.0000     -21.095096      -574.0268
   5   1.0000     -21.089485      -573.8741
   6   1.0000      -7.998555      -217.6518
   7   1.0000      -5.914848      -160.9512
   8   1.0000      -5.912200      -160.8791
   9   1.0000      -5.910901      -160.8438
  10   1.0000      -2.988781       -81.3289
  11   1.0000      -1.921972       -52.2995
  12   1.0000      -1.921508       -52.2869
  13   1.0000      -1.914804       -52.1045
  14   1.0000      -0.625731       -17.0270
  15   1.0000      -0.297281        -8.0894
  16   1.0000      -0.290067        -7.8931
  17   1.0000      -0.268656        -7.3105
  18   1.0000      -0.265744        -7.2313
  19   1.0000      -0.264809        -7.2058
  20   1.0000      -0.223916        -6.0931
  21   1.0000      -0.196988        -5.3603
  22   0.0000      -0.117610        -3.2003
  23   0.0000      -0.083664        -2.2766
  24   0.0000      -0.037160        -1.0112
  25   0.0000      -0.036536        -0.9942
  26   0.0000      -0.016428        -0.4470

                 SPIN DOWN ORBITALS
  NO   OCC          E(Eh)            E(eV)
   0   1.0000    -215.945605     -5876.1786
   1   1.0000     -88.984094     -2421.3803
   2   1.0000     -24.831860      -675.7093
   3   1.0000     -21.056647      -572.9805
   4   1.0000     -21.053734      -572.9012
   5   1.0000     -21.044151      -572.6405
   6   1.0000      -8.002448      -217.7577
   7   1.0000      -5.924576      -161.2159
   8   1.0000      -5.917475      -161.0227
   9   1.0000      -5.913791      -160.9224
  10   1.0000      -2.809774       -76.4578
  11   1.0000      -1.742335       -47.4113
  12   1.0000      -1.729001       -47.0485
  13   1.0000      -1.710821       -46.5538
  14   1.0000      -0.656000       -17.8507
  15   1.0000      -0.276106        -7.5132
  16   1.0000      -0.265874        -7.2348
  17   1.0000      -0.246775        -6.7151
  18   0.0000      -0.056320        -1.5325
  19   0.0000      -0.009880        -0.2688
  20   0.0000      -0.003390        -0.0923
  21   0.0000       0.001693         0.0461
  22   0.0000       0.004805         0.1308

MULLIKEN ATOMIC CHARGES AND SPIN POPULATIONS
--------------------------------------------
   0 Cr:    0.395928    4.706951
   1 S :   -0.395928   -0.706951
Sum of atomic charges         :   -0.0000000

LOEWDIN ATOMIC CHARGES AND SPIN POPULATIONS
-------------------------------------------
   0 Cr:    0.088648    4.497207
   1 S :   -0.088648   -0.497207

  Mayer bond orders larger than 0.100000
B(  0-Cr,  1-S ) :   1.8073

Dispersion correction           -0.000000326
FINAL SINGLE POINT ENERGY     -1442.575069900244

DIPOLE MOMENT
-------------
                                X             Y             Z
Electronic contribution:      0.00000       0.00000       5.15130
Nuclear contribution   :      0.00000       0.00000      -2.93936
                        -----------------------------------------
Total Dipole Moment    :      0.00000       0.00000       2.21194
                        -----------------------------------------
Magnitude (a.u.)       :      2.21194
Magnitude (Debye)      :      5.62231

Rotational constants in cm-1:     0.000000     0.194593     0.194593
Rotational constants in MHz :     0.000000  5833.746532  5833.746532

                             ****ORCA TERMINATED NORMALLY****
TOTAL RUN TIME: 0 days 0 hours 0 minutes 6 seconds 845 msec
