                         Program Version 4.2.0 -  RELEASE  -
|  1> #
|  2> # TMD11_Fe M06-D3/Def2-TZVPPD
|  3> #
|  4> ! m06 d3zero def2-tzvppd def2/jk grid4 nofinalgrid
|  5>
|  6> *xyz 0 5
|  7> Fe       0.000000    0.000000    0.000000
|  8> *
|  9>
| 10> %maxcore 5000
| 11>
| 12> %pal
| 13> nprocs = 24
| 14> end
| 15>
| 16>
| 17>                          ****END OF INPUT****

CARTESIAN COORDINATES (ANGSTROEM)
---------------------------------
  Fe     0.000000    0.000000    0.000000

 Total Charge           Charge          ....    0
 Multiplicity           Mult            ....    5
 Number of Electrons    NEL             ....   26
 Basis Dimension        Dim             ....   67

ORBITAL ENERGIES
----------------
                 SPIN UP ORBITALS
  NO   OCC          E(Eh)            E(eV)
   0   1.0000    -256.395722     -6976.8823
   1   1.0000     -30.343778      -825.6962
   2   1.0000     -26.141767      -711.3536
   3   1.0000     -26.113822      -710.5932
   4   1.0000     -26.113082      -710.5731
   5   1.0000      -3.691885      -100.4613
   6   1.0000      -2.471938       -67.2649
   7   1.0000      -2.418078       -65.7992
   8   1.0000      -2.416567       -65.7581
   9   1.0000      -0.441449       -12.0124
  10   1.0000      -0.434372       -11.8199
  11   1.0000      -0.433600       -11.7989
  12   1.0000      -0.408276       -11.1098
  13   1.0000      -0.385267       -10.4837
  14   1.0000      -0.229409        -6.2425
  15   0.0000      -0.034328        -0.9341
  16   0.0000      -0.032894        -0.8951
  17   0.0000      -0.032689        -0.8895
  18   0.0000       0.058149         1.5823
  19   0.0000       0.059065         1.6072

                 SPIN DOWN ORBITALS
  NO   OCC          E(Eh)            E(eV)
   0   1.0000    -256.394261     -6976.8425
   1   1.0000     -30.285435      -824.1086
   2   1.0000     -26.075903      -709.5614
   3   1.0000     -26.061598      -709.1721
   4   1.0000     -26.061234      -709.1622
   5   1.0000      -3.478266       -94.6484
   6   1.0000      -2.229776       -60.6753
   7   1.0000      -2.205674       -60.0194
   8   1.0000      -2.205303       -60.0094
   9   1.0000      -0.259674        -7.0661
  10   1.0000      -0.203822        -5.5463
  11   0.0000      -0.100603        -2.7375
  12   0.0000      -0.098265        -2.6739
  13   0.0000      -0.097848        -2.6626
  14   0.0000      -0.076957        -2.0941
  15   0.0000      -0.031599        -0.8598

MULLIKEN ATOMIC CHARGES AND SPIN POPULATIONS
--------------------------------------------
   0 Fe:   -0.000000    4.000000
Sum of atomic charges         :   -0.0000000

LOEWDIN ATOMIC CHARGES AND SPIN POPULATIONS
-------------------------------------------
   0 Fe:   -0.000000    4.000000

Dispersion correction            0.000000000
FINAL SINGLE POINT ENERGY     -1263.613963590887

DIPOLE MOMENT
-------------
                                X             Y             Z
Electronic contribution:      0.00000       0.00000      -0.00000
Nuclear contribution   :      0.00000       0.00000       0.00000
                        -----------------------------------------
Total Dipole Moment    :      0.00000       0.00000      -0.00000
                        -----------------------------------------
Magnitude (a.u.)       :      0.00000
Magnitude (Debye)      :      0.00000

Rotational constants in cm-1:     0.000000     0.000000     0.000000
Rotational constants in MHz :     0.000000     0.000000     0.000000

                             ****ORCA TERMINATED NORMALLY****
TOTAL RUN TIME: 0 days 0 hours 0 minutes 9 seconds 963 msec
