                         Program Version 4.2.0 -  RELEASE  -
|  1> #
|  2> # TMD16_VO M06-D3/Def2-TZVPPD
|  3> #
|  4> ! m06 d3zero def2-tzvppd def2/jk grid4 nofinalgrid
|  5>
|  6> *xyz 0 4
|  7> V        0.000000    0.000000    0.412903
|  8> O        0.000000    0.000000   -1.187097
|  9> *
| 10>
| 11> %maxcore 5000
| 12>
| 13> %pal
| 14> nprocs = 24
| 15> end
| 16>
| 17>
| 18>                          ****END OF INPUT****

CARTESIAN COORDINATES (ANGSTROEM)
---------------------------------
  V      0.000000    0.000000    0.412903
  O      0.000000    0.000000   -1.187097

 Total Charge           Charge          ....    0
 Multiplicity           Mult            ....    4
 Number of Electrons    NEL             ....   31
 Basis Dimension        Dim             ....  107

ORBITAL ENERGIES
----------------
                 SPIN UP ORBITALS
  NO   OCC          E(Eh)            E(eV)
   0   1.0000    -197.117564     -5363.8416
   1   1.0000     -22.435034      -610.4883
   2   1.0000     -19.196615      -522.3665
   3   1.0000     -18.871977      -513.5326
   4   1.0000     -18.858645      -513.1698
   5   1.0000     -18.858645      -513.1698
   6   1.0000      -2.714447       -73.8639
   7   1.0000      -1.743347       -47.4389
   8   1.0000      -1.720407       -46.8146
   9   1.0000      -1.720407       -46.8146
  10   1.0000      -0.890953       -24.2441
  11   1.0000      -0.348492        -9.4829
  12   1.0000      -0.334785        -9.1100
  13   1.0000      -0.334785        -9.1100
  14   1.0000      -0.236671        -6.4402
  15   1.0000      -0.236670        -6.4401
  16   1.0000      -0.189997        -5.1701
  17   0.0000      -0.076788        -2.0895
  18   0.0000      -0.076788        -2.0895
  19   0.0000      -0.060083        -1.6349
  20   0.0000      -0.025233        -0.6866
  21   0.0000      -0.025233        -0.6866

                 SPIN DOWN ORBITALS
  NO   OCC          E(Eh)            E(eV)
   0   1.0000    -197.115972     -5363.7983
   1   1.0000     -22.409984      -609.8067
   2   1.0000     -19.202945      -522.5387
   3   1.0000     -18.857594      -513.1412
   4   1.0000     -18.829552      -512.3782
   5   1.0000     -18.829552      -512.3782
   6   1.0000      -2.623885       -71.3995
   7   1.0000      -1.682666       -45.7877
   8   1.0000      -1.603898       -43.6443
   9   1.0000      -1.603898       -43.6443
  10   1.0000      -0.910540       -24.7770
  11   1.0000      -0.351963        -9.5774
  12   1.0000      -0.344538        -9.3754
  13   1.0000      -0.344538        -9.3754
  14   0.0000      -0.047837        -1.3017
  15   0.0000      -0.007013        -0.1908
  16   0.0000      -0.007012        -0.1908
  17   0.0000      -0.004302        -0.1171
  18   0.0000       0.000714         0.0194

MULLIKEN ATOMIC CHARGES AND SPIN POPULATIONS
--------------------------------------------
   0 V :    0.612969    3.339032
   1 O :   -0.612969   -0.339032
Sum of atomic charges         :   -0.0000000

LOEWDIN ATOMIC CHARGES AND SPIN POPULATIONS
-------------------------------------------
   0 V :    0.417930    3.093644
   1 O :   -0.417930   -0.093644

  Mayer bond orders larger than 0.100000
B(  0-V ,  1-O ) :   2.3208

Dispersion correction           -0.000000018
FINAL SINGLE POINT ENERGY     -1019.132340846479

DIPOLE MOMENT
-------------
                                X             Y             Z
Electronic contribution:     -0.00000      -0.00000       3.24785
Nuclear contribution   :      0.00000       0.00000      -1.78611
                        -----------------------------------------
Total Dipole Moment    :     -0.00000      -0.00000       1.46174
                        -----------------------------------------
Magnitude (a.u.)       :      1.46174
Magnitude (Debye)      :      3.71544

Rotational constants in cm-1:     0.000000     0.540859     0.540859
Rotational constants in MHz :     0.000000 16214.556702 16214.556702

                             ****ORCA TERMINATED NORMALLY****
TOTAL RUN TIME: 0 days 0 hours 0 minutes 5 seconds 886 msec
