                         Program Version 4.2.0 -  RELEASE  -
|  1> #
|  2> # TMD12_Co M06-D3/Def2-TZVPPD
|  3> #
|  4> ! m06 d3zero def2-tzvppd def2/jk grid4 nofinalgrid
|  5>
|  6> *xyz 0 4
|  7> Co       0.000000    0.000000    0.000000
|  8> *
|  9>
| 10> %maxcore 5000
| 11>
| 12> %pal
| 13> nprocs = 24
| 14> end
| 15>
| 16>
| 17>                          ****END OF INPUT****

CARTESIAN COORDINATES (ANGSTROEM)
---------------------------------
  Co     0.000000    0.000000    0.000000

 Total Charge           Charge          ....    0
 Multiplicity           Mult            ....    4
 Number of Electrons    NEL             ....   27
 Basis Dimension        Dim             ....   67

ORBITAL ENERGIES
----------------
                 SPIN UP ORBITALS
  NO   OCC          E(Eh)            E(eV)
   0   1.0000    -277.726014     -7557.3090
   1   1.0000     -33.008869      -898.2170
   2   1.0000     -28.566588      -777.3364
   3   1.0000     -28.565488      -777.3064
   4   1.0000     -28.565025      -777.2938
   5   1.0000      -3.794686      -103.2587
   6   1.0000      -2.447519       -66.6004
   7   1.0000      -2.445710       -66.5512
   8   1.0000      -2.445006       -66.5320
   9   1.0000      -0.286474        -7.7954
  10   1.0000      -0.286329        -7.7914
  11   1.0000      -0.263336        -7.1657
  12   1.0000      -0.262871        -7.1531
  13   1.0000      -0.262498        -7.1429
  14   1.0000      -0.191634        -5.2146
  15   0.0000      -0.024981        -0.6798
  16   0.0000      -0.024456        -0.6655
  17   0.0000      -0.023659        -0.6438
  18   0.0000       0.073881         2.0104
  19   0.0000       0.074206         2.0192

                 SPIN DOWN ORBITALS
  NO   OCC          E(Eh)            E(eV)
   0   1.0000    -277.723498     -7557.2406
   1   1.0000     -32.980245      -897.4381
   2   1.0000     -28.537790      -776.5527
   3   1.0000     -28.537084      -776.5335
   4   1.0000     -28.536755      -776.5246
   5   1.0000      -3.655882       -99.4816
   6   1.0000      -2.313065       -62.9417
   7   1.0000      -2.312563       -62.9280
   8   1.0000      -2.312510       -62.9266
   9   1.0000      -0.195707        -5.3254
  10   1.0000      -0.195219        -5.3122
  11   1.0000      -0.194678        -5.2975
  12   0.0000      -0.111838        -3.0433
  13   0.0000      -0.015307        -0.4165
  14   0.0000      -0.013979        -0.3804
  15   0.0000       0.009780         0.2661
  16   0.0000       0.010780         0.2933

MULLIKEN ATOMIC CHARGES AND SPIN POPULATIONS
--------------------------------------------
   0 Co:    0.000000    3.000000
Sum of atomic charges         :    0.0000000

LOEWDIN ATOMIC CHARGES AND SPIN POPULATIONS
-------------------------------------------
   0 Co:   -0.000000    3.000000

Dispersion correction            0.000000000
FINAL SINGLE POINT ENERGY     -1382.664299152058

DIPOLE MOMENT
-------------
                                X             Y             Z
Electronic contribution:      0.00000      -0.00000      -0.00000
Nuclear contribution   :      0.00000       0.00000       0.00000
                        -----------------------------------------
Total Dipole Moment    :      0.00000      -0.00000      -0.00000
                        -----------------------------------------
Magnitude (a.u.)       :      0.00000
Magnitude (Debye)      :      0.00000

Rotational constants in cm-1:     0.000000     0.000000     0.000000
Rotational constants in MHz :     0.000000     0.000000     0.000000

                             ****ORCA TERMINATED NORMALLY****
TOTAL RUN TIME: 0 days 0 hours 0 minutes 3 seconds 843 msec
