                         Program Version 4.2.0 -  RELEASE  -
|  1> #
|  2> # TMD19_FeCl M06-D3/Def2-TZVPPD
|  3> #
|  4> ! m06 d3zero def2-tzvppd def2/jk grid4 nofinalgrid
|  5>
|  6> *xyz 0 6
|  7> Fe       0.000000    0.000000    0.869767
|  8> Cl       0.000000    0.000000   -1.330233
|  9> *
| 10>
| 11> %maxcore 5000
| 12>
| 13> %pal
| 14> nprocs = 24
| 15> end
| 16>
| 17>
| 18>                          ****END OF INPUT****

CARTESIAN COORDINATES (ANGSTROEM)
---------------------------------
  Fe     0.000000    0.000000    0.869767
  Cl     0.000000    0.000000   -1.330233

 Total Charge           Charge          ....    0
 Multiplicity           Mult            ....    6
 Number of Electrons    NEL             ....   43
 Basis Dimension        Dim             ....  118

ORBITAL ENERGIES
----------------
                 SPIN UP ORBITALS
  NO   OCC          E(Eh)            E(eV)
   0   1.0000    -256.416572     -6977.4496
   1   1.0000    -101.686238     -2767.0232
   2   1.0000     -30.361245      -826.1715
   3   1.0000     -26.157318      -711.7768
   4   1.0000     -26.132436      -711.0997
   5   1.0000     -26.132436      -711.0997
   6   1.0000      -9.562274      -260.2027
   7   1.0000      -7.267209      -197.7508
   8   1.0000      -7.265025      -197.6914
   9   1.0000      -7.265025      -197.6914
  10   1.0000      -3.711960      -101.0076
  11   1.0000      -2.488066       -67.7037
  12   1.0000      -2.440695       -66.4147
  13   1.0000      -2.440695       -66.4147
  14   1.0000      -0.812041       -22.0968
  15   1.0000      -0.474231       -12.9045
  16   1.0000      -0.459410       -12.5012
  17   1.0000      -0.459410       -12.5012
  18   1.0000      -0.433507       -11.7963
  19   1.0000      -0.411374       -11.1941
  20   1.0000      -0.358529        -9.7561
  21   1.0000      -0.319478        -8.6934
  22   1.0000      -0.319478        -8.6934
  23   1.0000      -0.205404        -5.5893
  24   0.0000      -0.042178        -1.1477
  25   0.0000      -0.042178        -1.1477
  26   0.0000      -0.020069        -0.5461
  27   0.0000       0.009390         0.2555
  28   0.0000       0.026246         0.7142

                 SPIN DOWN ORBITALS
  NO   OCC          E(Eh)            E(eV)
   0   1.0000    -256.413663     -6977.3705
   1   1.0000    -101.684583     -2766.9782
   2   1.0000     -30.302808      -824.5813
   3   1.0000     -26.091477      -709.9852
   4   1.0000     -26.080191      -709.6781
   5   1.0000     -26.080191      -709.6781
   6   1.0000      -9.560771      -260.1618
   7   1.0000      -7.264524      -197.6777
   8   1.0000      -7.262674      -197.6274
   9   1.0000      -7.262674      -197.6274
  10   1.0000      -3.500688       -95.2586
  11   1.0000      -2.252529       -61.2944
  12   1.0000      -2.231926       -60.7338
  13   1.0000      -2.231926       -60.7338
  14   1.0000      -0.801712       -21.8157
  15   1.0000      -0.369247       -10.0477
  16   1.0000      -0.323683        -8.8079
  17   1.0000      -0.323683        -8.8079
  18   1.0000      -0.286478        -7.7954
  19   0.0000      -0.151138        -4.1127
  20   0.0000      -0.120215        -3.2712
  21   0.0000      -0.112158        -3.0520
  22   0.0000      -0.112154        -3.0519
  23   0.0000      -0.046662        -1.2697

MULLIKEN ATOMIC CHARGES AND SPIN POPULATIONS
--------------------------------------------
   0 Fe:    0.337520    4.863507
   1 Cl:   -0.337520    0.136493
Sum of atomic charges         :   -0.0000000

LOEWDIN ATOMIC CHARGES AND SPIN POPULATIONS
-------------------------------------------
   0 Fe:    0.209996    4.648311
   1 Cl:   -0.209996    0.351689

  Mayer bond orders larger than 0.100000
B(  0-Fe,  1-Cl) :   0.7854

Dispersion correction           -0.000000261
FINAL SINGLE POINT ENERGY     -1723.859478263427

DIPOLE MOMENT
-------------
                                X             Y             Z
Electronic contribution:      0.00000       0.00000       2.21671
Nuclear contribution   :      0.00000       0.00000      -1.26002
                        -----------------------------------------
Total Dipole Moment    :      0.00000       0.00000       0.95669
                        -----------------------------------------
Magnitude (a.u.)       :      0.95669
Magnitude (Debye)      :      2.43172

Rotational constants in cm-1:     0.000000     0.160606     0.160606
Rotational constants in MHz :     0.000000  4814.831818  4814.831818

                             ****ORCA TERMINATED NORMALLY****
TOTAL RUN TIME: 0 days 0 hours 0 minutes 5 seconds 256 msec
