                         Program Version 4.2.0 -  RELEASE  -
|  1> #
|  2> # TMD15_TiBr M06-D3/Def2-TZVPPD
|  3> #
|  4> ! m06 d3zero def2-tzvppd def2/jk grid4 nofinalgrid
|  5>
|  6> *xyz 0 4
|  7> Ti       0.000000    0.000000   -1.485965
|  8> Br       0.000000    0.000000    0.934035
|  9> *
| 10>
| 11> %maxcore 5000
| 12>
| 13> %pal
| 14> nprocs = 24
| 15> end
| 16>
| 17>
| 18>                          ****END OF INPUT****

CARTESIAN COORDINATES (ANGSTROEM)
---------------------------------
  Ti     0.000000    0.000000   -1.485965
  Br     0.000000    0.000000    0.934035

 Total Charge           Charge          ....    0
 Multiplicity           Mult            ....    4
 Number of Electrons    NEL             ....   57
 Basis Dimension        Dim             ....  124

ORBITAL ENERGIES
----------------
                 SPIN UP ORBITALS
  NO   OCC          E(Eh)            E(eV)
   0   1.0000    -483.132725    -13146.7098
   1   1.0000    -179.076274     -4872.9131
   2   1.0000     -62.765709     -1707.9418
   3   1.0000     -56.472410     -1536.6924
   4   1.0000     -56.471988     -1536.6809
   5   1.0000     -56.471988     -1536.6809
   6   1.0000     -20.028280      -544.9972
   7   1.0000     -16.679340      -453.8679
   8   1.0000     -16.663160      -453.4276
   9   1.0000     -16.663160      -453.4276
  10   1.0000      -8.802448      -239.5268
  11   1.0000      -6.575761      -178.9356
  12   1.0000      -6.574431      -178.8994
  13   1.0000      -6.574431      -178.8994
  14   1.0000      -2.636138       -71.7330
  15   1.0000      -2.635490       -71.7153
  16   1.0000      -2.635490       -71.7153
  17   1.0000      -2.634436       -71.6866
  18   1.0000      -2.634408       -71.6859
  19   1.0000      -2.410015       -65.5798
  20   1.0000      -1.517463       -41.2923
  21   1.0000      -1.502025       -40.8722
  22   1.0000      -1.502025       -40.8722
  23   1.0000      -0.739758       -20.1298
  24   1.0000      -0.319898        -8.7049
  25   1.0000      -0.285905        -7.7799
  26   1.0000      -0.285905        -7.7799
  27   1.0000      -0.183643        -4.9972
  28   1.0000      -0.183640        -4.9971
  29   1.0000      -0.174607        -4.7513
  30   0.0000      -0.068124        -1.8537
  31   0.0000      -0.068124        -1.8537
  32   0.0000      -0.064228        -1.7477
  33   0.0000      -0.036785        -1.0010
  34   0.0000      -0.036784        -1.0010

                 SPIN DOWN ORBITALS
  NO   OCC          E(Eh)            E(eV)
   0   1.0000    -483.132885    -13146.7142
   1   1.0000    -179.074668     -4872.8695
   2   1.0000     -62.765831     -1707.9451
   3   1.0000     -56.472614     -1536.6980
   4   1.0000     -56.472214     -1536.6871
   5   1.0000     -56.472214     -1536.6871
   6   1.0000     -20.014010      -544.6089
   7   1.0000     -16.671553      -453.6560
   8   1.0000     -16.644286      -452.9141
   9   1.0000     -16.644286      -452.9141
  10   1.0000      -8.802556      -239.5297
  11   1.0000      -6.575954      -178.9408
  12   1.0000      -6.574648      -178.9053
  13   1.0000      -6.574648      -178.9053
  14   1.0000      -2.636290       -71.7371
  15   1.0000      -2.635666       -71.7201
  16   1.0000      -2.635666       -71.7201
  17   1.0000      -2.634623       -71.6917
  18   1.0000      -2.634595       -71.6910
  19   1.0000      -2.324762       -63.2600
  20   1.0000      -1.462164       -39.7875
  21   1.0000      -1.396523       -38.0013
  22   1.0000      -1.396523       -38.0013
  23   1.0000      -0.742404       -20.2018
  24   1.0000      -0.318941        -8.6788
  25   1.0000      -0.286456        -7.7949
  26   1.0000      -0.286456        -7.7949
  27   0.0000      -0.038402        -1.0450
  28   0.0000      -0.021842        -0.5943
  29   0.0000      -0.013901        -0.3783
  30   0.0000      -0.013901        -0.3783
  31   0.0000      -0.001989        -0.0541

MULLIKEN ATOMIC CHARGES AND SPIN POPULATIONS
--------------------------------------------
   0 Ti:    0.334194    3.025436
   1 Br:   -0.334194   -0.025436
Sum of atomic charges         :   -0.0000000

LOEWDIN ATOMIC CHARGES AND SPIN POPULATIONS
-------------------------------------------
   0 Ti:    0.033627    2.909986
   1 Br:   -0.033627    0.090014

  Mayer bond orders larger than 0.100000
B(  0-Ti,  1-Br) :   1.2203

Dispersion correction           -0.000000338
FINAL SINGLE POINT ENERGY     -3423.450341491792

DIPOLE MOMENT
-------------
                                X             Y             Z
Electronic contribution:     -0.00000      -0.00000       1.02154
Nuclear contribution   :      0.00000       0.00000      -2.90920
                        -----------------------------------------
Total Dipole Moment    :     -0.00000      -0.00000      -1.88766
                        -----------------------------------------
Magnitude (a.u.)       :      1.88766
Magnitude (Debye)      :      4.79806

Rotational constants in cm-1:     0.000000     0.096120     0.096120
Rotational constants in MHz :     0.000000  2881.611529  2881.611529

                             ****ORCA TERMINATED NORMALLY****
TOTAL RUN TIME: 0 days 0 hours 0 minutes 7 seconds 825 msec
