                         Program Version 4.2.0 -  RELEASE  -
|  1> #
|  2> # TMD24_ZnS M06-D3/Def2-TZVPPD
|  3> #
|  4> ! m06 d3zero def2-tzvppd def2/jk grid4 nofinalgrid
|  5>
|  6> *xyz 0 1
|  7> Zn       0.000000    0.000000    0.720000
|  8> S        0.000000    0.000000   -1.350000
|  9> *
| 10>
| 11> %maxcore 5000
| 12>
| 13> %pal
| 14> nprocs = 24
| 15> end
| 16>
| 17>
| 18>                          ****END OF INPUT****

CARTESIAN COORDINATES (ANGSTROEM)
---------------------------------
  Zn     0.000000    0.000000    0.720000
  S      0.000000    0.000000   -1.350000

 Total Charge           Charge          ....    0
 Multiplicity           Mult            ....    1
 Number of Electrons    NEL             ....   46
 Basis Dimension        Dim             ....  118

ORBITAL ENERGIES
----------------

  NO   OCC          E(Eh)            E(eV)
   0   2.0000    -347.612630     -9459.0206
   1   2.0000     -89.004820     -2421.9443
   2   2.0000     -42.534264     -1157.4162
   3   2.0000     -37.414918     -1018.1117
   4   2.0000     -37.414486     -1018.0999
   5   2.0000     -37.414486     -1018.0999
   6   2.0000      -8.020800      -218.2571
   7   2.0000      -5.943500      -161.7309
   8   2.0000      -5.932302      -161.4261
   9   2.0000      -5.932302      -161.4261
  10   2.0000      -4.998965      -136.0288
  11   2.0000      -3.349900       -91.1554
  12   2.0000      -3.346450       -91.0615
  13   2.0000      -3.346450       -91.0615
  14   2.0000      -0.680878       -18.5276
  15   2.0000      -0.583289       -15.8721
  16   2.0000      -0.583289       -15.8721
  17   2.0000      -0.577637       -15.7183
  18   2.0000      -0.577631       -15.7181
  19   2.0000      -0.570778       -15.5317
  20   2.0000      -0.332980        -9.0609
  21   2.0000      -0.242776        -6.6063
  22   2.0000      -0.242776        -6.6063
  23   0.0000      -0.159278        -4.3342
  24   0.0000      -0.042228        -1.1491
  25   0.0000      -0.042227        -1.1491
  26   0.0000      -0.024573        -0.6687
  27   0.0000       0.009312         0.2534

MULLIKEN ATOMIC CHARGES
-----------------------
   0 Zn:    0.362482
   1 S :   -0.362482
Sum of atomic charges:   -0.0000000

LOEWDIN ATOMIC CHARGES
----------------------
   0 Zn:    0.326252
   1 S :   -0.326252

  Mayer bond orders larger than 0.100000
B(  0-Zn,  1-S ) :   1.8322

Dispersion correction           -0.000000459
FINAL SINGLE POINT ENERGY     -2177.508906210251

DIPOLE MOMENT
-------------
                                X             Y             Z
Electronic contribution:     -0.00000       0.00000       5.30589
Nuclear contribution   :      0.00000       0.00000      -3.38342
                        -----------------------------------------
Total Dipole Moment    :     -0.00000       0.00000       1.92247
                        -----------------------------------------
Magnitude (a.u.)       :      1.92247
Magnitude (Debye)      :      4.88653

Rotational constants in cm-1:     0.000000     0.182888     0.182888
Rotational constants in MHz :     0.000000  5482.842292  5482.842292

                             ****ORCA TERMINATED NORMALLY****
TOTAL RUN TIME: 0 days 0 hours 0 minutes 5 seconds 18 msec
