                         Program Version 4.2.0 -  RELEASE  -
|  1> #
|  2> # TMD20_FeS M06-D3/Def2-TZVPPD
|  3> #
|  4> ! m06 d3zero def2-tzvppd def2/jk grid4 nofinalgrid
|  5>
|  6> *xyz 0 5
|  7> Fe       0.000000    0.000000    0.769524
|  8> S        0.000000    0.000000   -1.250476
|  9> *
| 10>
| 11> %maxcore 5000
| 12>
| 13> %pal
| 14> nprocs = 24
| 15> end
| 16>
| 17>
| 18>                          ****END OF INPUT****

CARTESIAN COORDINATES (ANGSTROEM)
---------------------------------
  Fe     0.000000    0.000000    0.769524
  S      0.000000    0.000000   -1.250476

 Total Charge           Charge          ....    0
 Multiplicity           Mult            ....    5
 Number of Electrons    NEL             ....   42
 Basis Dimension        Dim             ....  118

ORBITAL ENERGIES
----------------
                 SPIN UP ORBITALS
  NO   OCC          E(Eh)            E(eV)
   0   1.0000    -256.353893     -6975.7441
   1   1.0000     -88.984470     -2421.3905
   2   1.0000     -30.289287      -824.2134
   3   1.0000     -26.082621      -709.7442
   4   1.0000     -26.063133      -709.2139
   5   1.0000     -26.063133      -709.2139
   6   1.0000      -8.002466      -217.7582
   7   1.0000      -5.919158      -161.0685
   8   1.0000      -5.917592      -161.0259
   9   1.0000      -5.917592      -161.0259
  10   1.0000      -3.635024       -98.9140
  11   1.0000      -2.408583       -65.5409
  12   1.0000      -2.367117       -64.4125
  13   1.0000      -2.367117       -64.4125
  14   1.0000      -0.661546       -18.0016
  15   1.0000      -0.400450       -10.8968
  16   1.0000      -0.393774       -10.7151
  17   1.0000      -0.393774       -10.7151
  18   1.0000      -0.368027       -10.0145
  19   1.0000      -0.346522        -9.4293
  20   1.0000      -0.274397        -7.4667
  21   1.0000      -0.232238        -6.3195
  22   1.0000      -0.232238        -6.3195
  23   0.0000      -0.114028        -3.1029
  24   0.0000      -0.030651        -0.8340
  25   0.0000      -0.030651        -0.8340
  26   0.0000      -0.014712        -0.4003
  27   0.0000       0.015050         0.4095

                 SPIN DOWN ORBITALS
  NO   OCC          E(Eh)            E(eV)
   0   1.0000    -256.352367     -6975.7025
   1   1.0000     -88.982618     -2421.3401
   2   1.0000     -30.239543      -822.8598
   3   1.0000     -26.028765      -708.2787
   4   1.0000     -26.017462      -707.9711
   5   1.0000     -26.017462      -707.9711
   6   1.0000      -8.000230      -217.6973
   7   1.0000      -5.917964      -161.0360
   8   1.0000      -5.913137      -160.9046
   9   1.0000      -5.913137      -160.9046
  10   1.0000      -3.453632       -93.9781
  11   1.0000      -2.212880       -60.2155
  12   1.0000      -2.183255       -59.4094
  13   1.0000      -2.183255       -59.4094
  14   1.0000      -0.642727       -17.4895
  15   1.0000      -0.291991        -7.9455
  16   1.0000      -0.250412        -6.8141
  17   1.0000      -0.250412        -6.8141
  18   1.0000      -0.236896        -6.4463
  19   0.0000      -0.152938        -4.1617
  20   0.0000      -0.098174        -2.6714
  21   0.0000      -0.098174        -2.6714
  22   0.0000      -0.089587        -2.4378
  23   0.0000      -0.083183        -2.2635

MULLIKEN ATOMIC CHARGES AND SPIN POPULATIONS
--------------------------------------------
   0 Fe:    0.394657    3.559527
   1 S :   -0.394657    0.440473
Sum of atomic charges         :   -0.0000000

LOEWDIN ATOMIC CHARGES AND SPIN POPULATIONS
-------------------------------------------
   0 Fe:    0.108340    3.482489
   1 S :   -0.108340    0.517511

  Mayer bond orders larger than 0.100000
B(  0-Fe,  1-S ) :   2.1635

Dispersion correction           -0.000000061
FINAL SINGLE POINT ENERGY     -1661.823279095334

DIPOLE MOMENT
-------------
                                X             Y             Z
Electronic contribution:     -0.00000      -0.00000       4.75464
Nuclear contribution   :      0.00000       0.00000      -2.60707
                        -----------------------------------------
Total Dipole Moment    :     -0.00000      -0.00000       2.14757
                        -----------------------------------------
Magnitude (a.u.)       :      2.14757
Magnitude (Debye)      :      5.45870

Rotational constants in cm-1:     0.000000     0.202836     0.202836
Rotational constants in MHz :     0.000000  6080.880231  6080.880231

                             ****ORCA TERMINATED NORMALLY****
TOTAL RUN TIME: 0 days 0 hours 0 minutes 5 seconds 159 msec
