                         Program Version 4.2.0 -  RELEASE  -
|  1> #
|  2> # TMD21_CoH M06-D3/Def2-TZVPPD
|  3> #
|  4> ! m06 d3zero def2-tzvppd def2/jk grid4 nofinalgrid
|  5>
|  6> *xyz 0 3
|  7> Co       0.000000    0.000000    0.053929
|  8> H        0.000000    0.000000   -1.456071
|  9> *
| 10>
| 11> %maxcore 5000
| 12>
| 13> %pal
| 14> nprocs = 24
| 15> end
| 16>
| 17>
| 18>                          ****END OF INPUT****

CARTESIAN COORDINATES (ANGSTROEM)
---------------------------------
  Co     0.000000    0.000000    0.053929
  H      0.000000    0.000000   -1.456071

 Total Charge           Charge          ....    0
 Multiplicity           Mult            ....    3
 Number of Electrons    NEL             ....   28
 Basis Dimension        Dim             ....   84

ORBITAL ENERGIES
----------------
                 SPIN UP ORBITALS
  NO   OCC          E(Eh)            E(eV)
   0   1.0000    -277.732347     -7557.4814
   1   1.0000     -33.017183      -898.4432
   2   1.0000     -28.574019      -777.5386
   3   1.0000     -28.574019      -777.5386
   4   1.0000     -28.573326      -777.5197
   5   1.0000      -3.797141      -103.3255
   6   1.0000      -2.448456       -66.6259
   7   1.0000      -2.448456       -66.6259
   8   1.0000      -2.447750       -66.6067
   9   1.0000      -0.324610        -8.8331
  10   1.0000      -0.289711        -7.8834
  11   1.0000      -0.265946        -7.2368
  12   1.0000      -0.265857        -7.2343
  13   1.0000      -0.265857        -7.2343
  14   1.0000      -0.238941        -6.5019
  15   0.0000      -0.066799        -1.8177
  16   0.0000      -0.023239        -0.6324
  17   0.0000      -0.023239        -0.6324
  18   0.0000       0.030623         0.8333
  19   0.0000       0.040200         1.0939

                 SPIN DOWN ORBITALS
  NO   OCC          E(Eh)            E(eV)
   0   1.0000    -277.731160     -7557.4491
   1   1.0000     -32.992218      -897.7639
   2   1.0000     -28.550270      -776.8923
   3   1.0000     -28.547879      -776.8273
   4   1.0000     -28.547879      -776.8273
   5   1.0000      -3.670989       -99.8927
   6   1.0000      -2.330708       -63.4218
   7   1.0000      -2.324482       -63.2524
   8   1.0000      -2.324482       -63.2524
   9   1.0000      -0.292378        -7.9560
  10   1.0000      -0.205899        -5.6028
  11   1.0000      -0.205899        -5.6028
  12   1.0000      -0.202350        -5.5062
  13   0.0000      -0.100682        -2.7397
  14   0.0000      -0.035061        -0.9541
  15   0.0000      -0.031337        -0.8527
  16   0.0000      -0.023833        -0.6485
  17   0.0000      -0.023832        -0.6485

MULLIKEN ATOMIC CHARGES AND SPIN POPULATIONS
--------------------------------------------
   0 Co:    0.073311    2.123037
   1 H :   -0.073311   -0.123037
Sum of atomic charges         :    0.0000000

LOEWDIN ATOMIC CHARGES AND SPIN POPULATIONS
-------------------------------------------
   0 Co:    0.241503    1.997793
   1 H :   -0.241503    0.002207

  Mayer bond orders larger than 0.100000
B(  0-Co,  1-H ) :   0.9605

Dispersion correction           -0.000000169
FINAL SINGLE POINT ENERGY     -1383.260920202903

DIPOLE MOMENT
-------------
                                X             Y             Z
Electronic contribution:     -0.00000      -0.00000       2.55944
Nuclear contribution   :      0.00000       0.00000      -1.50982
                        -----------------------------------------
Total Dipole Moment    :     -0.00000      -0.00000       1.04962
                        -----------------------------------------
Magnitude (a.u.)       :      1.04962
Magnitude (Debye)      :      2.66792

Rotational constants in cm-1:     0.000000     7.460162     7.460162
Rotational constants in MHz :     0.000000 223650.041735 223650.041735

                             ****ORCA TERMINATED NORMALLY****
TOTAL RUN TIME: 0 days 0 hours 0 minutes 4 seconds 497 msec
