                         Program Version 4.2.0 -  RELEASE  -
|  1> #
|  2> # TMD23_CuBr M06-D3/Def2-TZVPPD
|  3> #
|  4> ! m06 d3zero def2-tzvppd def2/jk grid4 nofinalgrid
|  5>
|  6> *xyz 0 1
|  7> Cu       0.000000    0.000000   -1.208594
|  8> Br       0.000000    0.000000    1.001406
|  9> *
| 10>
| 11> %maxcore 5000
| 12>
| 13> %pal
| 14> nprocs = 24
| 15> end
| 16>
| 17>
| 18>                          ****END OF INPUT****

CARTESIAN COORDINATES (ANGSTROEM)
---------------------------------
  Cu     0.000000    0.000000   -1.208594
  Br     0.000000    0.000000    1.001406

 Total Charge           Charge          ....    0
 Multiplicity           Mult            ....    1
 Number of Electrons    NEL             ....   64
 Basis Dimension        Dim             ....  124

ORBITAL ENERGIES
----------------

  NO   OCC          E(Eh)            E(eV)
   0   2.0000    -483.139748    -13146.9009
   1   2.0000    -323.310912     -8797.7372
   2   2.0000     -62.771993     -1708.1128
   3   2.0000     -56.480050     -1536.9003
   4   2.0000     -56.477781     -1536.8385
   5   2.0000     -56.477781     -1536.8385
   6   2.0000     -39.087594     -1063.6275
   7   2.0000     -34.200572      -930.6449
   8   2.0000     -34.200106      -930.6322
   9   2.0000     -34.200106      -930.6322
  10   2.0000      -8.808200      -239.6833
  11   2.0000      -6.585528      -179.2013
  12   2.0000      -6.578141      -179.0003
  13   2.0000      -6.578141      -179.0003
  14   2.0000      -4.434011      -120.6556
  15   2.0000      -2.890813       -78.6630
  16   2.0000      -2.886613       -78.5487
  17   2.0000      -2.886613       -78.5487
  18   2.0000      -2.644956       -71.9729
  19   2.0000      -2.642792       -71.9140
  20   2.0000      -2.642792       -71.9140
  21   2.0000      -2.636931       -71.7545
  22   2.0000      -2.636906       -71.7539
  23   2.0000      -0.745154       -20.2767
  24   2.0000      -0.367446        -9.9987
  25   2.0000      -0.349013        -9.4971
  26   2.0000      -0.349013        -9.4971
  27   2.0000      -0.334724        -9.1083
  28   2.0000      -0.334716        -9.1081
  29   2.0000      -0.297432        -8.0935
  30   2.0000      -0.270721        -7.3667
  31   2.0000      -0.270721        -7.3667
  32   0.0000      -0.115453        -3.1416
  33   0.0000      -0.026144        -0.7114
  34   0.0000      -0.026144        -0.7114
  35   0.0000      -0.008864        -0.2412
  36   0.0000       0.017942         0.4882

MULLIKEN ATOMIC CHARGES
-----------------------
   0 Cu:    0.046017
   1 Br:   -0.046017
Sum of atomic charges:   -0.0000000

LOEWDIN ATOMIC CHARGES
----------------------
   0 Cu:    0.006963
   1 Br:   -0.006963

  Mayer bond orders larger than 0.100000
B(  0-Cu,  1-Br) :   1.1598

Dispersion correction           -0.000000273
FINAL SINGLE POINT ENERGY     -4214.594235262014

DIPOLE MOMENT
-------------
                                X             Y             Z
Electronic contribution:      0.00000      -0.00000       0.90399
Nuclear contribution   :      0.00000       0.00000      -2.70316
                        -----------------------------------------
Total Dipole Moment    :      0.00000      -0.00000      -1.79917
                        -----------------------------------------
Magnitude (a.u.)       :      1.79917
Magnitude (Debye)      :      4.57314

Rotational constants in cm-1:     0.000000     0.097510     0.097510
Rotational constants in MHz :     0.000000  2923.285786  2923.285786

                             ****ORCA TERMINATED NORMALLY****
TOTAL RUN TIME: 0 days 0 hours 0 minutes 4 seconds 664 msec
