                         Program Version 4.2.0 -  RELEASE  -
|  1> #
|  2> # TMD22_CoF M06-D3/Def2-TZVPPD
|  3> #
|  4> ! m06 d3zero def2-tzvppd def2/jk grid4 nofinalgrid
|  5>
|  6> *xyz 0 3
|  7> Co       0.000000    0.000000    0.440000
|  8> F        0.000000    0.000000   -1.320000
|  9> *
| 10>
| 11> %maxcore 5000
| 12>
| 13> %pal
| 14> nprocs = 24
| 15> end
| 16>
| 17>
| 18>                          ****END OF INPUT****

CARTESIAN COORDINATES (ANGSTROEM)
---------------------------------
  Co     0.000000    0.000000    0.440000
  F      0.000000    0.000000   -1.320000

 Total Charge           Charge          ....    0
 Multiplicity           Mult            ....    3
 Number of Electrons    NEL             ....   36
 Basis Dimension        Dim             ....  107

ORBITAL ENERGIES
----------------
                 SPIN UP ORBITALS
  NO   OCC          E(Eh)            E(eV)
   0   1.0000    -277.794452     -7559.1713
   1   1.0000     -33.086149      -900.3199
   2   1.0000     -28.647390      -779.5351
   3   1.0000     -28.642387      -779.3990
   4   1.0000     -28.636871      -779.2489
   5   1.0000     -24.684242      -671.6924
   6   1.0000      -3.872420      -105.3739
   7   1.0000      -2.532141       -68.9031
   8   1.0000      -2.527254       -68.7701
   9   1.0000      -2.513135       -68.3859
  10   1.0000      -1.110098       -30.2073
  11   1.0000      -0.425175       -11.5696
  12   1.0000      -0.399293       -10.8653
  13   1.0000      -0.385538       -10.4910
  14   1.0000      -0.352086        -9.5808
  15   1.0000      -0.331495        -9.0205
  16   1.0000      -0.319593        -8.6966
  17   1.0000      -0.299608        -8.1528
  18   1.0000      -0.296204        -8.0601
  19   0.0000      -0.110929        -3.0185
  20   0.0000      -0.015658        -0.4261
  21   0.0000      -0.009530        -0.2593
  22   0.0000       0.008385         0.2282
  23   0.0000       0.046400         1.2626

                 SPIN DOWN ORBITALS
  NO   OCC          E(Eh)            E(eV)
   0   1.0000    -277.793921     -7559.1569
   1   1.0000     -33.054627      -899.4621
   2   1.0000     -28.613738      -778.6194
   3   1.0000     -28.610498      -778.5312
   4   1.0000     -28.608285      -778.4710
   5   1.0000     -24.682615      -671.6481
   6   1.0000      -3.729215      -101.4771
   7   1.0000      -2.385648       -64.9168
   8   1.0000      -2.384999       -64.8991
   9   1.0000      -2.376465       -64.6669
  10   1.0000      -1.105503       -30.0823
  11   1.0000      -0.399923       -10.8825
  12   1.0000      -0.368219       -10.0198
  13   1.0000      -0.358447        -9.7538
  14   1.0000      -0.255993        -6.9659
  15   1.0000      -0.238978        -6.5029
  16   1.0000      -0.223065        -6.0699
  17   0.0000      -0.104315        -2.8386
  18   0.0000      -0.058641        -1.5957
  19   0.0000      -0.055543        -1.5114
  20   0.0000      -0.026230        -0.7138
  21   0.0000      -0.020691        -0.5630

MULLIKEN ATOMIC CHARGES AND SPIN POPULATIONS
--------------------------------------------
   0 Co:    0.605624    1.946283
   1 F :   -0.605624    0.053717
Sum of atomic charges         :   -0.0000000

LOEWDIN ATOMIC CHARGES AND SPIN POPULATIONS
-------------------------------------------
   0 Co:    0.562943    1.977635
   1 F :   -0.562943    0.022365

  Mayer bond orders larger than 0.100000
B(  0-Co,  1-F ) :   0.7653

Dispersion correction           -0.000000095
FINAL SINGLE POINT ENERGY     -1482.568154976381

DIPOLE MOMENT
-------------
                                X             Y             Z
Electronic contribution:      0.00000      -0.00000       2.60994
Nuclear contribution   :      0.00000       0.00000      -0.74365
                        -----------------------------------------
Total Dipole Moment    :      0.00000      -0.00000       1.86630
                        -----------------------------------------
Magnitude (a.u.)       :      1.86630
Magnitude (Debye)      :      4.74376

Rotational constants in cm-1:     0.000000     0.378809     0.378809
Rotational constants in MHz :     0.000000 11356.420741 11356.420741

                             ****ORCA TERMINATED NORMALLY****
TOTAL RUN TIME: 0 days 0 hours 0 minutes 15 seconds 173 msec
