                         Program Version 4.2.0 -  RELEASE  -
|  1> #
|  2> # MOR02_bz ri-B2PLYP-D3BJ/Def2-TZVPPD
|  3> #
|  4> ! rijk ri-b2plyp d3bj def2-tzvppd def2/jk def2-tzvppd/c grid4 nofinalgrid
|  5>
|  6> *xyz 0 1
|  7> C        1.391947    0.103893   -0.000005
|  8> C        0.785946   -1.153510   -0.000002
|  9> C       -0.605997   -1.257403   -0.000005
| 10> C       -1.391947   -0.103892   -0.000002
| 11> C       -0.785947    1.153509   -0.000006
| 12> C        0.605998    1.257403   -0.000002
| 13> H        2.475503    0.184769    0.000018
| 14> H        1.397775   -2.051448    0.000027
| 15> H       -1.077745   -2.236217    0.000018
| 16> H       -2.475502   -0.184774    0.000031
| 17> H       -1.397773    2.051449    0.000014
| 18> H        1.077742    2.236219    0.000031
| 19> *
| 20>
| 21> %maxcore 5000
| 22>
| 23> %pal
| 24> nprocs = 24
| 25> end
| 26>
| 27>
| 28>                          ****END OF INPUT****

CARTESIAN COORDINATES (ANGSTROEM)
---------------------------------
  C      1.391947    0.103893   -0.000005
  C      0.785946   -1.153510   -0.000002
  C     -0.605997   -1.257403   -0.000005
  C     -1.391947   -0.103892   -0.000002
  C     -0.785947    1.153509   -0.000006
  C      0.605998    1.257403   -0.000002
  H      2.475503    0.184769    0.000018
  H      1.397775   -2.051448    0.000027
  H     -1.077745   -2.236217    0.000018
  H     -2.475502   -0.184774    0.000031
  H     -1.397773    2.051449    0.000014
  H      1.077742    2.236219    0.000031

 Total Charge           Charge          ....    0
 Multiplicity           Mult            ....    1
 Number of Electrons    NEL             ....   42
 Basis Dimension        Dim             ....  324

ORBITAL ENERGIES
----------------

  NO   OCC          E(Eh)            E(eV)
   0   2.0000     -10.621815      -289.0343
   1   2.0000     -10.621422      -289.0236
   2   2.0000     -10.621422      -289.0236
   3   2.0000     -10.620569      -289.0004
   4   2.0000     -10.620569      -289.0004
   5   2.0000     -10.620156      -288.9891
   6   2.0000      -0.978120       -26.6160
   7   2.0000      -0.858781       -23.3686
   8   2.0000      -0.858779       -23.3686
   9   2.0000      -0.696147       -18.9431
  10   2.0000      -0.696145       -18.9431
  11   2.0000      -0.602635       -16.3985
  12   2.0000      -0.538436       -14.6516
  13   2.0000      -0.520789       -14.1714
  14   2.0000      -0.492593       -13.4041
  15   2.0000      -0.492590       -13.4041
  16   2.0000      -0.426890       -11.6163
  17   2.0000      -0.408999       -11.1294
  18   2.0000      -0.408995       -11.1293
  19   2.0000      -0.292357        -7.9554
  20   2.0000      -0.292356        -7.9554
  21   0.0000       0.036079         0.9817
  22   0.0000       0.038961         1.0602
  23   0.0000       0.038967         1.0603
  24   0.0000       0.054222         1.4755
  25   0.0000       0.054246         1.4761

MULLIKEN ATOMIC CHARGES
-----------------------
   0 C :   -0.001565
   1 C :    0.000132
   2 C :   -0.001336
   3 C :   -0.000183
   4 C :   -0.000604
   5 C :    0.000295
   6 H :    0.000407
   7 H :    0.000807
   8 H :    0.000476
   9 H :    0.000466
  10 H :    0.000471
  11 H :    0.000633
Sum of atomic charges:    0.0000000

LOEWDIN ATOMIC CHARGES
----------------------
   0 C :    0.002958
   1 C :    0.002964
   2 C :    0.002967
   3 C :    0.002959
   4 C :    0.002963
   5 C :    0.002968
   6 H :   -0.002962
   7 H :   -0.002962
   8 H :   -0.002965
   9 H :   -0.002963
  10 H :   -0.002962
  11 H :   -0.002965

  Mayer bond orders larger than 0.100000
B(  0-C ,  1-C ) :   1.2276 B(  0-C ,  5-C ) :   1.2263 B(  0-C ,  6-H ) :   1.0885
B(  1-C ,  2-C ) :   1.2259 B(  1-C ,  7-H ) :   1.0879 B(  2-C ,  3-C ) :   1.2257
B(  2-C ,  8-H ) :   1.0885 B(  3-C ,  4-C ) :   1.2269 B(  3-C ,  9-H ) :   1.0886
B(  4-C ,  5-C ) :   1.2248 B(  4-C , 10-H ) :   1.0886 B(  5-C , 11-H ) :   1.0883

MP2 TOTAL ENERGY:     -232.123622433 Eh
Dispersion correction           -0.008618139
FINAL SINGLE POINT ENERGY      -232.132240572382

DIPOLE MOMENT
-------------
                                X             Y             Z
Electronic contribution:     -0.00000       0.00000      -0.00010
Nuclear contribution   :      0.00000      -0.00000       0.00014
                        -----------------------------------------
Total Dipole Moment    :     -0.00000      -0.00000       0.00004
                        -----------------------------------------
Magnitude (a.u.)       :      0.00004
Magnitude (Debye)      :      0.00011

Rotational constants in cm-1:     0.189759     0.189757     0.094879
Rotational constants in MHz :  5688.823776  5688.770067  2844.398461

                             ****ORCA TERMINATED NORMALLY****
TOTAL RUN TIME: 0 days 0 hours 0 minutes 7 seconds 245 msec
