                         Program Version 4.2.0 -  RELEASE  -
|  1> #
|  2> # MOR09_ed07 ri-B2PLYP-D3BJ/Def2-TZVPPD
|  3> #
|  4> ! rijk ri-b2plyp d3bj def2-tzvppd def2/jk def2-tzvppd/c grid4 nofinalgrid
|  5>
|  6> *xyz 0 1
|  7> W        0.102077    0.091078   -0.092267
|  8> C        0.117393   -1.847063   -0.698289
|  9> O        0.106421   -2.944423   -1.101491
| 10> C        0.053830    0.623127   -1.953542
| 11> O        0.062184    0.954188   -3.084324
| 12> C       -0.079789    2.065684    0.368043
| 13> O       -0.241835    3.206144    0.563164
| 14> P       -2.374272   -0.093775    0.152024
| 15> C       -2.924700   -0.636961    1.860300
| 16> H       -4.020662   -0.654132    1.869520
| 17> C       -3.301587    1.526034   -0.042070
| 18> H       -2.720709    2.174283    0.626552
| 19> C       -3.158465   -1.412689   -0.926528
| 20> H       -2.602719   -2.298136   -0.589541
| 21> C        3.533012   -1.160075   -0.926747
| 22> P        2.541683   -0.047968    0.198665
| 23> H        3.436930   -0.493420    2.480788
| 24> H        3.117150   -2.146572   -0.686664
| 25> C        3.597094    1.476716    0.423185
| 26> H        4.630625    1.133957    0.560412
| 27> C       -3.162167    2.103519   -1.458162
| 28> H       -3.455722    3.159421   -1.453162
| 29> H       -3.815975    1.580772   -2.162650
| 30> H       -2.136423    2.033109   -1.825887
| 31> C       -4.764402    1.570333    0.422322
| 32> H       -5.415801    0.983387   -0.229568
| 33> H       -5.116762    2.608723    0.390691
| 34> H       -4.893747    1.210688    1.447022
| 35> C       -4.655036   -1.682881   -0.716884
| 36> H       -4.925909   -1.790522    0.337405
| 37> H       -4.929224   -2.613829   -1.227923
| 38> H       -5.265149   -0.883893   -1.147063
| 39> C       -2.846467   -1.236186   -2.419424
| 40> H       -3.119249   -2.151958   -2.956758
| 41> H       -1.787229   -1.039228   -2.589757
| 42> H       -3.419310   -0.412085   -2.852792
| 43> C       -2.418211   -2.050160    2.179041
| 44> H       -2.879973   -2.804800    1.536232
| 45> H       -2.649558   -2.306479    3.219697
| 46> H       -1.332968   -2.120913    2.045449
| 47> C       -2.447309    0.375917    2.910548
| 48> H       -1.357998    0.484909    2.881372
| 49> H       -2.729985    0.039964    3.915237
| 50> H       -2.881675    1.366975    2.750689
| 51> C        5.039293   -1.175311   -0.637409
| 52> H        5.257150   -1.324613    0.425881
| 53> H        5.510398   -0.237807   -0.951034
| 54> H        5.518847   -1.987312   -1.196567
| 55> C        3.236493   -0.904929   -2.411567
| 56> H        3.640990    0.053418   -2.749243
| 57> C        1.267139   -0.464900    2.531536
| 58> H        2.161630   -0.902783   -2.603826
| 59> H        3.697388   -1.694627   -3.016368
| 60> C        2.697601   -2.411104    1.824913
| 61> H        0.411078   -0.840608    1.910182
| 62> H        1.101298   -0.955345    3.499474
| 63> H        1.182937    0.613220    2.672323
| 64> C        2.601288   -0.882352    1.885247
| 65> H        2.586441   -2.826896    2.833616
| 66> H        3.659680   -2.747270    1.429848
| 67> H        1.903309   -2.831808    1.199333
| 68> C        3.181998    2.276906    1.664687
| 69> H        2.135318    2.587016    1.600131
| 70> H        3.793597    3.184158    1.733044
| 71> H        3.324478    1.710719    2.590306
| 72> C        3.508784    2.354763   -0.833649
| 73> H        2.465553    2.610163   -1.046808
| 74> H        3.919372    1.854332   -1.714343
| 75> H        4.068793    3.284623   -0.679973
| 76> *
| 77>
| 78> %maxcore 5000
| 79>
| 80> %pal
| 81> nprocs = 24
| 82> end
| 83>
| 84>
| 85>                          ****END OF INPUT****

CARTESIAN COORDINATES (ANGSTROEM)
---------------------------------
  W      0.102077    0.091078   -0.092267
  C      0.117393   -1.847063   -0.698289
  O      0.106421   -2.944423   -1.101491
  C      0.053830    0.623127   -1.953542
  O      0.062184    0.954188   -3.084324
  C     -0.079789    2.065684    0.368043
  O     -0.241835    3.206144    0.563164
  P     -2.374272   -0.093775    0.152024
  C     -2.924700   -0.636961    1.860300
  H     -4.020662   -0.654132    1.869520
  C     -3.301587    1.526034   -0.042070
  H     -2.720709    2.174283    0.626552
  C     -3.158465   -1.412689   -0.926528
  H     -2.602719   -2.298136   -0.589541
  C      3.533012   -1.160075   -0.926747
  P      2.541683   -0.047968    0.198665
  H      3.436930   -0.493420    2.480788
  H      3.117150   -2.146572   -0.686664
  C      3.597094    1.476716    0.423185
  H      4.630625    1.133957    0.560412
  C     -3.162167    2.103519   -1.458162
  H     -3.455722    3.159421   -1.453162
  H     -3.815975    1.580772   -2.162650
  H     -2.136423    2.033109   -1.825887
  C     -4.764402    1.570333    0.422322
  H     -5.415801    0.983387   -0.229568
  H     -5.116762    2.608723    0.390691
  H     -4.893747    1.210688    1.447022
  C     -4.655036   -1.682881   -0.716884
  H     -4.925909   -1.790522    0.337405
  H     -4.929224   -2.613829   -1.227923
  H     -5.265149   -0.883893   -1.147063
  C     -2.846467   -1.236186   -2.419424
  H     -3.119249   -2.151958   -2.956758
  H     -1.787229   -1.039228   -2.589757
  H     -3.419310   -0.412085   -2.852792
  C     -2.418211   -2.050160    2.179041
  H     -2.879973   -2.804800    1.536232
  H     -2.649558   -2.306479    3.219697
  H     -1.332968   -2.120913    2.045449
  C     -2.447309    0.375917    2.910548
  H     -1.357998    0.484909    2.881372
  H     -2.729985    0.039964    3.915237
  H     -2.881675    1.366975    2.750689
  C      5.039293   -1.175311   -0.637409
  H      5.257150   -1.324613    0.425881
  H      5.510398   -0.237807   -0.951034
  H      5.518847   -1.987312   -1.196567
  C      3.236493   -0.904929   -2.411567
  H      3.640990    0.053418   -2.749243
  C      1.267139   -0.464900    2.531536
  H      2.161630   -0.902783   -2.603826
  H      3.697388   -1.694627   -3.016368
  C      2.697601   -2.411104    1.824913
  H      0.411078   -0.840608    1.910182
  H      1.101298   -0.955345    3.499474
  H      1.182937    0.613220    2.672323
  C      2.601288   -0.882352    1.885247
  H      2.586441   -2.826896    2.833616
  H      3.659680   -2.747270    1.429848
  H      1.903309   -2.831808    1.199333
  C      3.181998    2.276906    1.664687
  H      2.135318    2.587016    1.600131
  H      3.793597    3.184158    1.733044
  H      3.324478    1.710719    2.590306
  C      3.508784    2.354763   -0.833649
  H      2.465553    2.610163   -1.046808
  H      3.919372    1.854332   -1.714343
  H      4.068793    3.284623   -0.679973

 Total Charge           Charge          ....    0
 Multiplicity           Mult            ....    1
 Number of Electrons    NEL             ....  236
 Basis Dimension        Dim             .... 1766

ORBITAL ENERGIES
----------------

  NO   OCC          E(Eh)            E(eV)
   0   2.0000     -78.275145     -2129.9750
   1   2.0000     -78.273076     -2129.9187
   2   2.0000     -19.771944      -538.0220
   3   2.0000     -19.770846      -537.9921
   4   2.0000     -19.728481      -536.8393
   5   2.0000     -10.708330      -291.3885
   6   2.0000     -10.708093      -291.3820
   7   2.0000     -10.677119      -290.5392
   8   2.0000     -10.641487      -289.5696
   9   2.0000     -10.639697      -289.5209
  10   2.0000     -10.629116      -289.2330
  11   2.0000     -10.628445      -289.2147
  12   2.0000     -10.627309      -289.1838
  13   2.0000     -10.623062      -289.0682
  14   2.0000     -10.622631      -289.0565
  15   2.0000     -10.619605      -288.9741
  16   2.0000     -10.615319      -288.8575
  17   2.0000     -10.613528      -288.8088
  18   2.0000     -10.613132      -288.7980
  19   2.0000     -10.611136      -288.7437
  20   2.0000     -10.608255      -288.6653
  21   2.0000     -10.607218      -288.6371
  22   2.0000     -10.605242      -288.5833
  23   2.0000     -10.600605      -288.4571
  24   2.0000     -10.596745      -288.3521
  25   2.0000     -10.594729      -288.2972
  26   2.0000      -6.943312      -188.9371
  27   2.0000      -6.940032      -188.8479
  28   2.0000      -4.994757      -135.9142
  29   2.0000      -4.994216      -135.8995
  30   2.0000      -4.992134      -135.8429
  31   2.0000      -4.991329      -135.8210
  32   2.0000      -4.991249      -135.8188
  33   2.0000      -4.988980      -135.7571
  34   2.0000      -3.084184       -83.9249
  35   2.0000      -1.674824       -45.5743
  36   2.0000      -1.673709       -45.5439
  37   2.0000      -1.662781       -45.2466
  38   2.0000      -1.240753       -33.7626
  39   2.0000      -1.239452       -33.7272
  40   2.0000      -1.197276       -32.5795
  41   2.0000      -0.943730       -25.6802
  42   2.0000      -0.933295       -25.3962
  43   2.0000      -0.912293       -24.8248
  44   2.0000      -0.901711       -24.5368
  45   2.0000      -0.900051       -24.4916
  46   2.0000      -0.895421       -24.3656
  47   2.0000      -0.813674       -22.1412
  48   2.0000      -0.799267       -21.7492
  49   2.0000      -0.795040       -21.6341
  50   2.0000      -0.792364       -21.5613
  51   2.0000      -0.791949       -21.5500
  52   2.0000      -0.782019       -21.2798
  53   2.0000      -0.754570       -20.5329
  54   2.0000      -0.748587       -20.3701
  55   2.0000      -0.689701       -18.7677
  56   2.0000      -0.678777       -18.4705
  57   2.0000      -0.676427       -18.4065
  58   2.0000      -0.675597       -18.3839
  59   2.0000      -0.652306       -17.7502
  60   2.0000      -0.627680       -17.0800
  61   2.0000      -0.613404       -16.6916
  62   2.0000      -0.602635       -16.3985
  63   2.0000      -0.597980       -16.2719
  64   2.0000      -0.561193       -15.2708
  65   2.0000      -0.551010       -14.9938
  66   2.0000      -0.546857       -14.8807
  67   2.0000      -0.540459       -14.7066
  68   2.0000      -0.539951       -14.6928
  69   2.0000      -0.529585       -14.4107
  70   2.0000      -0.522963       -14.2305
  71   2.0000      -0.522557       -14.2195
  72   2.0000      -0.512088       -13.9346
  73   2.0000      -0.505352       -13.7513
  74   2.0000      -0.503681       -13.7058
  75   2.0000      -0.500667       -13.6238
  76   2.0000      -0.497401       -13.5350
  77   2.0000      -0.494467       -13.4551
  78   2.0000      -0.493437       -13.4271
  79   2.0000      -0.490692       -13.3524
  80   2.0000      -0.481308       -13.0971
  81   2.0000      -0.479068       -13.0361
  82   2.0000      -0.476219       -12.9586
  83   2.0000      -0.474849       -12.9213
  84   2.0000      -0.473152       -12.8751
  85   2.0000      -0.469730       -12.7820
  86   2.0000      -0.469096       -12.7648
  87   2.0000      -0.465422       -12.6648
  88   2.0000      -0.463808       -12.6209
  89   2.0000      -0.460757       -12.5378
  90   2.0000      -0.458410       -12.4740
  91   2.0000      -0.456262       -12.4155
  92   2.0000      -0.454529       -12.3684
  93   2.0000      -0.451722       -12.2920
  94   2.0000      -0.450755       -12.2657
  95   2.0000      -0.439063       -11.9475
  96   2.0000      -0.432290       -11.7632
  97   2.0000      -0.428917       -11.6714
  98   2.0000      -0.426366       -11.6020
  99   2.0000      -0.417747       -11.3675
 100   2.0000      -0.416027       -11.3207
 101   2.0000      -0.415368       -11.3027
 102   2.0000      -0.410279       -11.1643
 103   2.0000      -0.405776       -11.0417
 104   2.0000      -0.405596       -11.0368
 105   2.0000      -0.402001       -10.9390
 106   2.0000      -0.400280       -10.8922
 107   2.0000      -0.399729       -10.8772
 108   2.0000      -0.397871       -10.8266
 109   2.0000      -0.359009        -9.7691
 110   2.0000      -0.352860        -9.6018
 111   2.0000      -0.350791        -9.5455
 112   2.0000      -0.348052        -9.4710
 113   2.0000      -0.340681        -9.2704
 114   2.0000      -0.296113        -8.0576
 115   2.0000      -0.223959        -6.0942
 116   2.0000      -0.215102        -5.8532
 117   2.0000      -0.205119        -5.5816
 118   0.0000      -0.007702        -0.2096
 119   0.0000       0.020615         0.5610
 120   0.0000       0.023756         0.6464
 121   0.0000       0.026268         0.7148
 122   0.0000       0.032607         0.8873

MULLIKEN ATOMIC CHARGES
-----------------------
   0 W :   -0.237891
   1 C :    0.354454
   2 O :   -0.494856
   3 C :    0.744425
   4 O :   -0.581439
   5 C :    0.335170
   6 O :   -0.505407
   7 P :    0.103873
   8 C :    0.769334
   9 H :    0.317130
  10 C :    0.928391
  11 H :    0.123518
  12 C :    0.940718
  13 H :    0.149191
  14 C :    1.229546
  15 P :   -0.322972
  16 H :    0.395316
  17 H :    0.217019
  18 C :    0.946245
  19 H :    0.334568
  20 C :   -0.835619
  21 H :    0.142181
  22 H :    0.064839
  23 H :    0.061552
  24 C :   -0.844364
  25 H :    0.043759
  26 H :    0.161478
  27 H :    0.107818
  28 C :   -0.890885
  29 H :    0.131878
  30 H :    0.143041
  31 H :    0.069270
  32 C :   -0.769787
  33 H :    0.152659
  34 H :    0.041254
  35 H :    0.061043
  36 C :   -0.887199
  37 H :    0.111984
  38 H :    0.127069
  39 H :    0.021055
  40 C :   -0.800482
  41 H :   -0.035673
  42 H :    0.136381
  43 H :    0.139122
  44 C :   -0.911180
  45 H :    0.132638
  46 H :    0.085344
  47 H :    0.144347
  48 C :   -0.724953
  49 H :    0.049977
  50 C :   -0.731160
  51 H :    0.055963
  52 H :    0.148741
  53 C :   -0.869697
  54 H :   -0.192926
  55 H :    0.106250
  56 H :    0.137837
  57 C :    0.864581
  58 H :    0.143792
  59 H :    0.086392
  60 H :    0.105838
  61 C :   -0.771380
  62 H :    0.042911
  63 H :    0.162109
  64 H :    0.063976
  65 C :   -0.810347
  66 H :    0.055843
  67 H :    0.068217
  68 H :    0.158175
Sum of atomic charges:   -0.0000000

LOEWDIN ATOMIC CHARGES
----------------------
   0 W :    0.297814
   1 C :   -0.257339
   2 O :    0.033676
   3 C :   -0.369077
   4 O :   -0.007309
   5 C :   -0.250026
   6 O :    0.032049
   7 P :    1.068730
   8 C :   -0.368002
   9 H :   -0.029744
  10 C :   -0.349350
  11 H :   -0.038228
  12 C :   -0.348597
  13 H :   -0.033796
  14 C :   -0.353210
  15 P :    1.063715
  16 H :   -0.005473
  17 H :   -0.026654
  18 C :   -0.351429
  19 H :   -0.014909
  20 C :    0.124758
  21 H :   -0.002735
  22 H :   -0.021414
  23 H :   -0.040740
  24 C :    0.127459
  25 H :   -0.027701
  26 H :   -0.003739
  27 H :   -0.028660
  28 C :    0.125289
  29 H :   -0.026000
  30 H :   -0.004491
  31 H :   -0.024504
  32 C :    0.124317
  33 H :   -0.002098
  34 H :   -0.048879
  35 H :   -0.022198
  36 C :    0.117871
  37 H :   -0.019655
  38 H :   -0.006235
  39 H :   -0.035754
  40 C :    0.118515
  41 H :   -0.037789
  42 H :   -0.005553
  43 H :   -0.020747
  44 C :    0.114026
  45 H :   -0.020312
  46 H :   -0.015997
  47 H :   -0.004853
  48 C :    0.125199
  49 H :   -0.023650
  50 C :    0.069443
  51 H :   -0.041205
  52 H :   -0.003802
  53 C :    0.118295
  54 H :   -0.075890
  55 H :    0.010325
  56 H :   -0.033587
  57 C :   -0.336409
  58 H :   -0.004245
  59 H :   -0.021343
  60 H :   -0.022573
  61 C :    0.115085
  62 H :   -0.039028
  63 H :   -0.003899
  64 H :   -0.024435
  65 C :    0.124372
  66 H :   -0.019362
  67 H :   -0.031916
  68 H :   -0.006400

  Mayer bond orders larger than 0.100000
B(  0-W ,  1-C ) :   0.7584 B(  0-W ,  3-C ) :   1.6017 B(  0-W ,  5-C ) :   0.1636
B(  0-W ,  7-P ) :  -0.3957 B(  0-W , 10-C ) :   0.1346 B(  0-W , 12-C ) :   0.1002
B(  0-W , 14-C ) :   0.1726 B(  0-W , 18-C ) :   0.2635 B(  1-C ,  2-O ) :   1.8151
B(  1-C ,  3-C ) :   0.1289 B(  1-C ,  5-C ) :   0.6662 B(  1-C ,  7-P ) :   0.3939
B(  1-C , 15-P ) :   0.2705 B(  1-C , 50-C ) :   0.1351 B(  1-C , 54-H ) :  -0.1135
B(  3-C ,  4-O ) :   1.7300 B(  3-C ,  5-C ) :   0.2821 B(  3-C ,  7-P ) :   0.1078
B(  3-C , 15-P ) :   0.2772 B(  5-C ,  6-O ) :   1.8793 B(  5-C ,  7-P ) :   0.3942
B(  5-C , 15-P ) :   0.1814 B(  7-P ,  8-C ) :   0.9486 B(  7-P , 10-C ) :   0.6933
B(  7-P , 12-C ) :   0.7721 B(  7-P , 15-P ) :  -0.3025 B(  7-P , 24-C ) :   0.1154
B(  7-P , 40-C ) :   0.1178 B(  7-P , 54-H ) :  -0.1165 B(  8-C ,  9-H ) :   0.8117
B(  8-C , 10-C ) :   0.2863 B(  8-C , 12-C ) :   0.3118 B(  8-C , 36-C ) :   0.5688
B(  8-C , 39-H ) :  -0.1380 B(  8-C , 40-C ) :   0.5972 B(  8-C , 41-H ) :  -0.1235
B( 10-C , 11-H ) :   0.9096 B( 10-C , 12-C ) :   0.2889 B( 10-C , 20-C ) :   0.5577
B( 10-C , 24-C ) :   0.4981 B( 10-C , 25-H ) :  -0.1094 B( 10-C , 40-C ) :   0.1291
B( 11-H , 20-C ) :  -0.1048 B( 12-C , 13-H ) :   0.8781 B( 12-C , 28-C ) :   0.5064
B( 12-C , 31-H ) :  -0.1041 B( 12-C , 32-C ) :   0.5867 B( 12-C , 36-C ) :   0.1589
B( 14-C , 15-P ) :   0.2055 B( 14-C , 17-H ) :   0.8688 B( 14-C , 18-C ) :   0.2277
B( 14-C , 44-C ) :   0.4783 B( 14-C , 46-H ) :  -0.1075 B( 14-C , 48-C ) :   0.5503
B( 14-C , 57-C ) :   0.2218 B( 15-P , 16-H ) :  -0.2166 B( 15-P , 18-C ) :   0.6623
B( 15-P , 44-C ) :   0.1102 B( 15-P , 48-C ) :   0.1074 B( 15-P , 50-C ) :   0.3888
B( 15-P , 57-C ) :   0.8089 B( 15-P , 61-C ) :   0.2194 B( 15-P , 65-C ) :   0.2431
B( 16-H , 57-C ) :   0.8291 B( 18-C , 19-H ) :   0.7751 B( 18-C , 57-C ) :   0.2218
B( 18-C , 61-C ) :   0.4017 B( 18-C , 62-H ) :  -0.1234 B( 18-C , 65-C ) :   0.5381
B( 18-C , 66-H ) :  -0.1031 B( 19-H , 61-C ) :  -0.1181 B( 20-C , 21-H ) :   1.0424
B( 20-C , 22-H ) :   1.0817 B( 20-C , 23-H ) :   1.0290 B( 20-C , 24-C ) :   0.1399
B( 24-C , 25-H ) :   1.0707 B( 24-C , 26-H ) :   1.0631 B( 24-C , 27-H ) :   0.9989
B( 28-C , 29-H ) :   0.9761 B( 28-C , 30-H ) :   1.0742 B( 28-C , 31-H ) :   1.0780
B( 28-C , 32-C ) :   0.1252 B( 32-C , 33-H ) :   1.0253 B( 32-C , 34-H ) :   1.0403
B( 32-C , 35-H ) :   1.0656 B( 36-C , 37-H ) :   0.9879 B( 36-C , 38-H ) :   1.0673
B( 36-C , 39-H ) :   1.0432 B( 40-C , 41-H ) :   1.0445 B( 40-C , 42-H ) :   1.0447
B( 40-C , 43-H ) :   0.9675 B( 44-C , 45-H ) :   0.9959 B( 44-C , 46-H ) :   1.1023
B( 44-C , 47-H ) :   1.0646 B( 48-C , 49-H ) :   1.0547 B( 48-C , 51-H ) :   1.0855
B( 48-C , 52-H ) :   1.0321 B( 50-C , 53-C ) :   0.1442 B( 50-C , 54-H ) :   1.3739
B( 50-C , 55-H ) :   0.8937 B( 50-C , 56-H ) :   1.0375 B( 50-C , 57-C ) :   0.6612
B( 53-C , 57-C ) :   0.5138 B( 53-C , 58-H ) :   1.0322 B( 53-C , 59-H ) :   1.0770
B( 53-C , 60-H ) :   1.0458 B( 54-H , 57-C ) :  -0.1099 B( 57-C , 60-H ) :  -0.1102
B( 61-C , 62-H ) :   1.0645 B( 61-C , 63-H ) :   1.0283 B( 61-C , 64-H ) :   1.0634
B( 61-C , 65-C ) :   0.1439 B( 65-C , 66-H ) :   1.1048 B( 65-C , 67-H ) :   1.0018
B( 65-C , 68-H ) :   1.0240

MP2 TOTAL ENERGY:    -1800.310186624 Eh
Dispersion correction           -0.097798747
FINAL SINGLE POINT ENERGY     -1800.407985370978

DIPOLE MOMENT
-------------
                                X             Y             Z
Electronic contribution:     17.80535      16.06262     -19.90557
Nuclear contribution   :    -17.42159     -16.73751      21.91193
                        -----------------------------------------
Total Dipole Moment    :      0.38376      -0.67488       2.00636
                        -----------------------------------------
Magnitude (a.u.)       :      2.15133
Magnitude (Debye)      :      5.46825

Rotational constants in cm-1:     0.007992     0.003859     0.003786
Rotational constants in MHz :   239.602072   115.683770   113.510152

                             ****ORCA TERMINATED NORMALLY****
TOTAL RUN TIME: 0 days 0 hours 14 minutes 48 seconds 407 msec
