                         Program Version 4.2.0 -  RELEASE  -
|  1> #
|  2> # MOR08_ed05 ri-B2PLYP-D3BJ/Def2-TZVPPD
|  3> #
|  4> ! rijk ri-b2plyp d3bj def2-tzvppd def2/jk def2-tzvppd/c grid4 nofinalgrid
|  5>
|  6> *xyz 0 1
|  7> Mn      -0.000015    0.000034   -0.156112
|  8> O       -2.966556    0.069032   -0.568565
|  9> C       -1.835048    0.042703   -0.376221
| 10> C        0.000106   -0.000266    1.691489
| 11> O        0.000196   -0.000501    2.842648
| 12> C        1.835004   -0.042558   -0.376374
| 13> O        2.966501   -0.068795   -0.568793
| 14> C        0.042608    1.834986   -0.376689
| 15> O        0.068875    2.966413   -0.569532
| 16> C       -0.042655   -1.834886   -0.377054
| 17> O       -0.068962   -2.966280   -0.570073
| 18> H       -0.000145    0.000318   -1.733571
| 19> *
| 20>
| 21> %maxcore 5000
| 22>
| 23> %pal
| 24> nprocs = 24
| 25> end
| 26>
| 27>
| 28>                          ****END OF INPUT****

CARTESIAN COORDINATES (ANGSTROEM)
---------------------------------
  Mn    -0.000015    0.000034   -0.156112
  O     -2.966556    0.069032   -0.568565
  C     -1.835048    0.042703   -0.376221
  C      0.000106   -0.000266    1.691489
  O      0.000196   -0.000501    2.842648
  C      1.835004   -0.042558   -0.376374
  O      2.966501   -0.068795   -0.568793
  C      0.042608    1.834986   -0.376689
  O      0.068875    2.966413   -0.569532
  C     -0.042655   -1.834886   -0.377054
  O     -0.068962   -2.966280   -0.570073
  H     -0.000145    0.000318   -1.733571

 Total Charge           Charge          ....    0
 Multiplicity           Mult            ....    1
 Number of Electrons    NEL             ....   96
 Basis Dimension        Dim             ....  469

ORBITAL ENERGIES
----------------

  NO   OCC          E(Eh)            E(eV)
   0   2.0000    -237.633327     -6466.3316
   1   2.0000     -28.114147      -765.0248
   2   2.0000     -24.035341      -654.0349
   3   2.0000     -24.035340      -654.0349
   4   2.0000     -24.031083      -653.9190
   5   2.0000     -19.834416      -539.7219
   6   2.0000     -19.834414      -539.7218
   7   2.0000     -19.834402      -539.7215
   8   2.0000     -19.834397      -539.7214
   9   2.0000     -19.831587      -539.6449
  10   2.0000     -10.771362      -293.1037
  11   2.0000     -10.771359      -293.1036
  12   2.0000     -10.771353      -293.1034
  13   2.0000     -10.771350      -293.1033
  14   2.0000     -10.768196      -293.0175
  15   2.0000      -3.454157       -93.9924
  16   2.0000      -2.238634       -60.9163
  17   2.0000      -2.238632       -60.9163
  18   2.0000      -2.229040       -60.6553
  19   2.0000      -1.310645       -35.6645
  20   2.0000      -1.309807       -35.6417
  21   2.0000      -1.309793       -35.6413
  22   2.0000      -1.309166       -35.6242
  23   2.0000      -1.305438       -35.5228
  24   2.0000      -0.728829       -19.8325
  25   2.0000      -0.684476       -18.6255
  26   2.0000      -0.684465       -18.6252
  27   2.0000      -0.681596       -18.5472
  28   2.0000      -0.678840       -18.4722
  29   2.0000      -0.611015       -16.6266
  30   2.0000      -0.574615       -15.6361
  31   2.0000      -0.566682       -15.4202
  32   2.0000      -0.566681       -15.4202
  33   2.0000      -0.564283       -15.3549
  34   2.0000      -0.562452       -15.3051
  35   2.0000      -0.562440       -15.3048
  36   2.0000      -0.548916       -14.9368
  37   2.0000      -0.544231       -14.8093
  38   2.0000      -0.544229       -14.8092
  39   2.0000      -0.540011       -14.6944
  40   2.0000      -0.534226       -14.5370
  41   2.0000      -0.530356       -14.4317
  42   2.0000      -0.508010       -13.8237
  43   2.0000      -0.508000       -13.8234
  44   2.0000      -0.357994        -9.7415
  45   2.0000      -0.342302        -9.3145
  46   2.0000      -0.335359        -9.1256
  47   2.0000      -0.335342        -9.1251
  48   0.0000       0.009472         0.2577
  49   0.0000       0.009801         0.2667
  50   0.0000       0.009810         0.2669
  51   0.0000       0.021403         0.5824
  52   0.0000       0.027552         0.7497

MULLIKEN ATOMIC CHARGES
-----------------------
   0 Mn:    0.671743
   1 O :   -0.286973
   2 C :    0.253966
   3 C :   -0.009482
   4 O :   -0.307094
   5 C :    0.253525
   6 O :   -0.286892
   7 C :    0.253187
   8 O :   -0.286940
   9 C :    0.252883
  10 O :   -0.287033
  11 H :   -0.220890
Sum of atomic charges:   -0.0000000

LOEWDIN ATOMIC CHARGES
----------------------
   0 Mn:   -0.515356
   1 O :    0.152054
   2 C :   -0.067700
   3 C :   -0.036881
   4 O :    0.139263
   5 C :   -0.067695
   6 O :    0.152056
   7 C :   -0.067734
   8 O :    0.152032
   9 C :   -0.067718
  10 O :    0.152036
  11 H :    0.075644

  Mayer bond orders larger than 0.100000
B(  0-Mn,  2-C ) :   0.7315 B(  0-Mn,  3-C ) :   0.7251 B(  0-Mn,  5-C ) :   0.7315
B(  0-Mn,  7-C ) :   0.7320 B(  0-Mn,  9-C ) :   0.7315 B(  0-Mn, 11-H ) :   0.6609
B(  1-O ,  2-C ) :   2.1497 B(  3-C ,  4-O ) :   2.1009 B(  5-C ,  6-O ) :   2.1495
B(  7-C ,  8-O ) :   2.1495 B(  9-C , 10-O ) :   2.1496

MP2 TOTAL ENERGY:    -1718.103837228 Eh
Dispersion correction           -0.012526030
FINAL SINGLE POINT ENERGY     -1718.116363258399

DIPOLE MOMENT
-------------
                                X             Y             Z
Electronic contribution:      0.00010      -0.00020       1.12997
Nuclear contribution   :     -0.00006       0.00014      -0.87929
                        -----------------------------------------
Total Dipole Moment    :      0.00003      -0.00007       0.25068
                        -----------------------------------------
Magnitude (a.u.)       :      0.25068
Magnitude (Debye)      :      0.63717

Rotational constants in cm-1:     0.030200     0.030198     0.023242
Rotational constants in MHz :   905.379927   905.310991   696.775514

                             ****ORCA TERMINATED NORMALLY****
TOTAL RUN TIME: 0 days 0 hours 0 minutes 25 seconds 402 msec
