                         Program Version 4.2.0 -  RELEASE  -
|  1> #
|  2> # MOR06_cod ri-B2PLYP-D3BJ/Def2-TZVPPD
|  3> #
|  4> ! rijk ri-b2plyp d3bj def2-tzvppd def2/jk def2-tzvppd/c grid4 nofinalgrid
|  5>
|  6> *xyz 0 1
|  7> C        1.191389    1.227675   -0.516531
|  8> C        0.040474   -1.675611   -0.245785
|  9> C       -0.040358    1.675615   -0.245809
| 10> H        1.773340    1.813957   -1.228847
| 11> C       -1.191236   -1.227682   -0.516688
| 12> H        0.358706   -2.571437   -0.779467
| 13> H       -0.358419    2.571431   -0.779611
| 14> H       -1.772889   -1.813647   -1.229501
| 15> C       -1.080136    1.086431    0.676864
| 16> H       -1.767105    1.885380    0.980109
| 17> H       -0.630813    0.710792    1.597907
| 18> C        1.924335    0.021333    0.009175
| 19> H        2.698129    0.353800    0.719005
| 20> H        2.474959   -0.423127   -0.831863
| 21> C        1.079920   -1.086274    0.677130
| 22> H        0.630295   -0.710168    1.597840
| 23> H        1.766727   -1.885140    0.980948
| 24> C       -1.924342   -0.021538    0.009255
| 25> H       -2.697754   -0.354225    0.719400
| 26> H       -2.475456    0.422687   -0.831583
| 27> *
| 28>
| 29> %maxcore 5000
| 30>
| 31> %pal
| 32> nprocs = 24
| 33> end
| 34>
| 35>
| 36>                          ****END OF INPUT****

CARTESIAN COORDINATES (ANGSTROEM)
---------------------------------
  C      1.191389    1.227675   -0.516531
  C      0.040474   -1.675611   -0.245785
  C     -0.040358    1.675615   -0.245809
  H      1.773340    1.813957   -1.228847
  C     -1.191236   -1.227682   -0.516688
  H      0.358706   -2.571437   -0.779467
  H     -0.358419    2.571431   -0.779611
  H     -1.772889   -1.813647   -1.229501
  C     -1.080136    1.086431    0.676864
  H     -1.767105    1.885380    0.980109
  H     -0.630813    0.710792    1.597907
  C      1.924335    0.021333    0.009175
  H      2.698129    0.353800    0.719005
  H      2.474959   -0.423127   -0.831863
  C      1.079920   -1.086274    0.677130
  H      0.630295   -0.710168    1.597840
  H      1.766727   -1.885140    0.980948
  C     -1.924342   -0.021538    0.009255
  H     -2.697754   -0.354225    0.719400
  H     -2.475456    0.422687   -0.831583

 Total Charge           Charge          ....    0
 Multiplicity           Mult            ....    1
 Number of Electrons    NEL             ....   60
 Basis Dimension        Dim             ....  500

ORBITAL ENERGIES
----------------

  NO   OCC          E(Eh)            E(eV)
   0   2.0000     -10.615095      -288.8514
   1   2.0000     -10.615095      -288.8514
   2   2.0000     -10.611389      -288.7506
   3   2.0000     -10.611383      -288.7504
   4   2.0000     -10.608749      -288.6787
   5   2.0000     -10.608743      -288.6786
   6   2.0000     -10.606136      -288.6076
   7   2.0000     -10.606132      -288.6075
   8   2.0000      -0.945084       -25.7170
   9   2.0000      -0.888053       -24.1651
  10   2.0000      -0.883689       -24.0464
  11   2.0000      -0.791475       -21.5371
  12   2.0000      -0.771094       -20.9825
  13   2.0000      -0.687618       -18.7110
  14   2.0000      -0.620615       -16.8878
  15   2.0000      -0.597083       -16.2475
  16   2.0000      -0.552747       -15.0410
  17   2.0000      -0.523653       -14.2493
  18   2.0000      -0.509691       -13.8694
  19   2.0000      -0.502582       -13.6759
  20   2.0000      -0.481877       -13.1125
  21   2.0000      -0.468432       -12.7467
  22   2.0000      -0.433268       -11.7898
  23   2.0000      -0.433090       -11.7850
  24   2.0000      -0.421208       -11.4617
  25   2.0000      -0.393094       -10.6966
  26   2.0000      -0.377629       -10.2758
  27   2.0000      -0.367572       -10.0021
  28   2.0000      -0.287345        -7.8190
  29   2.0000      -0.282741        -7.6938
  30   0.0000       0.033475         0.9109
  31   0.0000       0.044579         1.2131
  32   0.0000       0.053708         1.4615
  33   0.0000       0.053872         1.4659
  34   0.0000       0.061763         1.6806

MULLIKEN ATOMIC CHARGES
-----------------------
   0 C :   -0.250606
   1 C :   -0.136544
   2 C :   -0.137547
   3 H :   -0.024952
   4 C :   -0.251366
   5 H :   -0.021064
   6 H :   -0.021106
   7 H :   -0.024791
   8 C :    0.211187
   9 H :    0.049446
  10 H :    0.051813
  11 C :   -0.023645
  12 H :    0.074047
  13 H :    0.071467
  14 C :    0.211363
  15 H :    0.051624
  16 H :    0.049609
  17 C :   -0.024547
  18 H :    0.074038
  19 H :    0.071573
Sum of atomic charges:    0.0000000

LOEWDIN ATOMIC CHARGES
----------------------
   0 C :    0.009048
   1 C :    0.013850
   2 C :    0.013875
   3 H :   -0.006115
   4 C :    0.009051
   5 H :   -0.005081
   6 H :   -0.005095
   7 H :   -0.006117
   8 C :   -0.026062
   9 H :    0.010229
  10 H :   -0.005791
  11 C :   -0.020946
  12 H :    0.016115
  13 H :    0.014734
  14 C :   -0.026045
  15 H :   -0.005785
  16 H :    0.010232
  17 C :   -0.020942
  18 H :    0.016123
  19 H :    0.014722

  Mayer bond orders larger than 0.100000
B(  0-C ,  2-C ) :   1.3456 B(  0-C ,  3-H ) :   1.1312 B(  0-C ,  8-C ) :  -0.1013
B(  0-C , 11-C ) :   1.0428 B(  1-C ,  4-C ) :   1.3441 B(  1-C ,  5-H ) :   1.0880
B(  1-C , 11-C ) :   0.2121 B(  1-C , 14-C ) :   0.8691 B(  1-C , 17-C ) :  -0.2088
B(  2-C ,  6-H ) :   1.0882 B(  2-C ,  8-C ) :   0.8675 B(  2-C , 11-C ) :  -0.2079
B(  2-C , 17-C ) :   0.2127 B(  4-C ,  7-H ) :   1.1307 B(  4-C , 14-C ) :  -0.1025
B(  4-C , 17-C ) :   1.0437 B(  8-C ,  9-H ) :   1.0424 B(  8-C , 10-H ) :   0.9796
B(  8-C , 14-C ) :   0.1446 B(  8-C , 17-C ) :   0.7779 B( 11-C , 12-H ) :   0.9721
B( 11-C , 13-H ) :   0.9673 B( 11-C , 14-C ) :   0.7772 B( 14-C , 15-H ) :   0.9792
B( 14-C , 16-H ) :   1.0422 B( 17-C , 18-H ) :   0.9720 B( 17-C , 19-H ) :   0.9674

MP2 TOTAL ENERGY:     -311.849940293 Eh
Dispersion correction           -0.015582885
FINAL SINGLE POINT ENERGY      -311.865523178043

DIPOLE MOMENT
-------------
                                X             Y             Z
Electronic contribution:      0.00031      -0.00032      -0.85717
Nuclear contribution   :     -0.00029       0.00032       0.95237
                        -----------------------------------------
Total Dipole Moment    :      0.00002      -0.00000       0.09520
                        -----------------------------------------
Magnitude (a.u.)       :      0.09520
Magnitude (Debye)      :      0.24197

Rotational constants in cm-1:     0.087291     0.074989     0.047810
Rotational constants in MHz :  2616.931187  2248.128417  1433.302108

                             ****ORCA TERMINATED NORMALLY****
TOTAL RUN TIME: 0 days 0 hours 0 minutes 17 seconds 323 msec
