                         Program Version 4.2.0 -  RELEASE  -
|  1> #
|  2> # MOR01_accl ri-B2PLYP-D3BJ/Def2-TZVPPD
|  3> #
|  4> ! rijk ri-b2plyp d3bj def2-tzvppd def2/jk def2-tzvppd/c grid4 nofinalgrid
|  5>
|  6> *xyz 0 1
|  7> C        1.306659   -1.017500   -0.000028
|  8> C        0.488515    0.240833   -0.000079
|  9> H        2.367301   -0.760167   -0.001300
| 10> H        1.052624   -1.613812   -0.881062
| 11> H        1.054555   -1.612076    0.882774
| 12> O        0.865971    1.367720    0.000018
| 13> Cl      -1.304312   -0.135041    0.000005
| 14> *
| 15>
| 16> %maxcore 5000
| 17>
| 18> %pal
| 19> nprocs = 24
| 20> end
| 21>
| 22>
| 23>                          ****END OF INPUT****

CARTESIAN COORDINATES (ANGSTROEM)
---------------------------------
  C      1.306659   -1.017500   -0.000028
  C      0.488515    0.240833   -0.000079
  H      2.367301   -0.760167   -0.001300
  H      1.052624   -1.613812   -0.881062
  H      1.054555   -1.612076    0.882774
  O      0.865971    1.367720    0.000018
  Cl    -1.304312   -0.135041    0.000005

 Total Charge           Charge          ....    0
 Multiplicity           Mult            ....    1
 Number of Electrons    NEL             ....   40
 Basis Dimension        Dim             ....  216

ORBITAL ENERGIES
----------------

  NO   OCC          E(Eh)            E(eV)
   0   2.0000    -102.917523     -2800.5282
   1   2.0000     -19.768140      -537.9184
   2   2.0000     -10.790123      -293.6142
   3   2.0000     -10.656687      -289.9832
   4   2.0000      -9.922824      -270.0138
   5   2.0000      -7.561892      -205.7695
   6   2.0000      -7.557188      -205.6416
   7   2.0000      -7.556561      -205.6245
   8   2.0000      -1.248189       -33.9649
   9   2.0000      -0.969225       -26.3739
  10   2.0000      -0.881508       -23.9870
  11   2.0000      -0.657568       -17.8933
  12   2.0000      -0.576507       -15.6875
  13   2.0000      -0.563624       -15.3370
  14   2.0000      -0.552737       -15.0407
  15   2.0000      -0.495360       -13.4794
  16   2.0000      -0.470860       -12.8128
  17   2.0000      -0.388381       -10.5684
  18   2.0000      -0.386635       -10.5209
  19   2.0000      -0.369404       -10.0520
  20   0.0000       0.013192         0.3590
  21   0.0000       0.021092         0.5739
  22   0.0000       0.045863         1.2480
  23   0.0000       0.056664         1.5419
  24   0.0000       0.061777         1.6810

MULLIKEN ATOMIC CHARGES
-----------------------
   0 C :   -0.226692
   1 C :    0.653930
   2 H :    0.083775
   3 H :    0.110631
   4 H :    0.110486
   5 O :   -0.430115
   6 Cl:   -0.302015
Sum of atomic charges:    0.0000000

LOEWDIN ATOMIC CHARGES
----------------------
   0 C :    0.131060
   1 C :   -0.728413
   2 H :    0.000127
   3 H :   -0.004413
   4 H :   -0.004321
   5 O :    0.046245
   6 Cl:    0.559715

  Mayer bond orders larger than 0.100000
B(  0-C ,  1-C ) :   0.8795 B(  0-C ,  2-H ) :   1.0040 B(  0-C ,  3-H ) :   0.9780
B(  0-C ,  4-H ) :   0.9779 B(  1-C ,  5-O ) :   1.9481 B(  1-C ,  6-Cl) :   0.7941
B(  5-O ,  6-Cl) :   0.1136

MP2 TOTAL ENERGY:     -613.281952249 Eh
Dispersion correction           -0.003767548
FINAL SINGLE POINT ENERGY      -613.285719796290

DIPOLE MOMENT
-------------
                                X             Y             Z
Electronic contribution:     -5.50840       2.57981      -0.00035
Nuclear contribution   :      6.08095      -3.60915       0.00039
                        -----------------------------------------
Total Dipole Moment    :      0.57255      -1.02934       0.00004
                        -----------------------------------------
Magnitude (a.u.)       :      1.17786
Magnitude (Debye)      :      2.99388

Rotational constants in cm-1:     0.334975     0.160198     0.110601
Rotational constants in MHz : 10042.310181  4802.622935  3315.727154

                             ****ORCA TERMINATED NORMALLY****
TOTAL RUN TIME: 0 days 0 hours 0 minutes 6 seconds 713 msec
