                         Program Version 4.2.0 -  RELEASE  -
|  1> #
|  2> # MOR07_ed01 ri-B2PLYP-D3BJ/Def2-TZVPPD
|  3> #
|  4> ! rijk ri-b2plyp d3bj def2-tzvppd def2/jk def2-tzvppd/c grid4 nofinalgrid
|  5>
|  6> *xyz 0 1
|  7> Cr      -0.000046    0.000041   -0.405569
|  8> O       -2.277907    2.043130   -0.317819
|  9> C       -1.422280    1.275470   -0.391359
| 10> C       -0.000325   -0.000192    1.429559
| 11> O       -0.000571   -0.000422    2.587655
| 12> C        1.422359   -1.275089   -0.391211
| 13> O        2.278285   -2.042429   -0.317709
| 14> C        1.275390    1.422211   -0.390822
| 15> O        2.043071    2.277781   -0.316760
| 16> C       -1.275267   -1.422351   -0.391135
| 17> O       -2.042647   -2.278220   -0.317434
| 18> *
| 19>
| 20> %maxcore 5000
| 21>
| 22> %pal
| 23> nprocs = 24
| 24> end
| 25>
| 26>
| 27>                          ****END OF INPUT****

CARTESIAN COORDINATES (ANGSTROEM)
---------------------------------
  Cr    -0.000046    0.000041   -0.405569
  O     -2.277907    2.043130   -0.317819
  C     -1.422280    1.275470   -0.391359
  C     -0.000325   -0.000192    1.429559
  O     -0.000571   -0.000422    2.587655
  C      1.422359   -1.275089   -0.391211
  O      2.278285   -2.042429   -0.317709
  C      1.275390    1.422211   -0.390822
  O      2.043071    2.277781   -0.316760
  C     -1.275267   -1.422351   -0.391135
  O     -2.042647   -2.278220   -0.317434

 Total Charge           Charge          ....    0
 Multiplicity           Mult            ....    1
 Number of Electrons    NEL             ....   94
 Basis Dimension        Dim             ....  452

ORBITAL ENERGIES
----------------

  NO   OCC          E(Eh)            E(eV)
   0   2.0000    -217.791312     -5926.4029
   1   2.0000     -25.461799      -692.8508
   2   2.0000     -21.600578      -587.7816
   3   2.0000     -21.600577      -587.7816
   4   2.0000     -21.598677      -587.7299
   5   2.0000     -19.828633      -539.5645
   6   2.0000     -19.828622      -539.5642
   7   2.0000     -19.828619      -539.5642
   8   2.0000     -19.828617      -539.5641
   9   2.0000     -19.802945      -538.8655
  10   2.0000     -10.760316      -292.8031
  11   2.0000     -10.760308      -292.8029
  12   2.0000     -10.760305      -292.8028
  13   2.0000     -10.760303      -292.8027
  14   2.0000     -10.742267      -292.3120
  15   2.0000      -3.142968       -85.5245
  16   2.0000      -2.013270       -54.7839
  17   2.0000      -2.013268       -54.7838
  18   2.0000      -2.010799       -54.7166
  19   2.0000      -1.301886       -35.4261
  20   2.0000      -1.301249       -35.4088
  21   2.0000      -1.301242       -35.4086
  22   2.0000      -1.300810       -35.3968
  23   2.0000      -1.276235       -34.7281
  24   2.0000      -0.713210       -19.4074
  25   2.0000      -0.678181       -18.4542
  26   2.0000      -0.678176       -18.4541
  27   2.0000      -0.674239       -18.3470
  28   2.0000      -0.660339       -17.9687
  29   2.0000      -0.593058       -16.1379
  30   2.0000      -0.562867       -15.3164
  31   2.0000      -0.558538       -15.1986
  32   2.0000      -0.558533       -15.1985
  33   2.0000      -0.553549       -15.0628
  34   2.0000      -0.550670       -14.9845
  35   2.0000      -0.550667       -14.9844
  36   2.0000      -0.541415       -14.7327
  37   2.0000      -0.535120       -14.5614
  38   2.0000      -0.525659       -14.3039
  39   2.0000      -0.525658       -14.3039
  40   2.0000      -0.524800       -14.2805
  41   2.0000      -0.501183       -13.6379
  42   2.0000      -0.495305       -13.4779
  43   2.0000      -0.495296       -13.4777
  44   2.0000      -0.295903        -8.0519
  45   2.0000      -0.295899        -8.0518
  46   2.0000      -0.293058        -7.9745
  47   0.0000      -0.074903        -2.0382
  48   0.0000       0.006490         0.1766
  49   0.0000       0.006498         0.1768
  50   0.0000       0.017112         0.4656
  51   0.0000       0.024723         0.6727

MULLIKEN ATOMIC CHARGES
-----------------------
   0 Cr:   -0.369464
   1 O :   -0.287995
   2 C :    0.371011
   3 C :    0.360526
   4 O :   -0.323014
   5 C :    0.371026
   6 O :   -0.288014
   7 C :    0.370893
   8 O :   -0.287970
   9 C :    0.371001
  10 O :   -0.288000
Sum of atomic charges:   -0.0000000

LOEWDIN ATOMIC CHARGES
----------------------
   0 Cr:   -0.273617
   1 O :    0.127445
   2 C :   -0.053640
   3 C :   -0.139250
   4 O :    0.117808
   5 C :   -0.053696
   6 O :    0.127448
   7 C :   -0.053702
   8 O :    0.127443
   9 C :   -0.053683
  10 O :    0.127443

  Mayer bond orders larger than 0.100000
B(  0-Cr,  2-C ) :   0.9435 B(  0-Cr,  3-C ) :   1.3377 B(  0-Cr,  4-O ) :   0.1113
B(  0-Cr,  5-C ) :   0.9434 B(  0-Cr,  7-C ) :   0.9436 B(  0-Cr,  9-C ) :   0.9435
B(  1-O ,  2-C ) :   2.1735 B(  3-C ,  4-O ) :   2.0331 B(  5-C ,  6-O ) :   2.1734
B(  7-C ,  8-O ) :   2.1734 B(  9-C , 10-O ) :   2.1734

MP2 TOTAL ENERGY:    -1610.948406611 Eh
Dispersion correction           -0.013850314
FINAL SINGLE POINT ENERGY     -1610.962256924420

DIPOLE MOMENT
-------------
                                X             Y             Z
Electronic contribution:     -0.00034       0.00033      -2.48617
Nuclear contribution   :      0.00017      -0.00015       1.50310
                        -----------------------------------------
Total Dipole Moment    :     -0.00017       0.00017      -0.98307
                        -----------------------------------------
Magnitude (a.u.)       :      0.98307
Magnitude (Debye)      :      2.49878

Rotational constants in cm-1:     0.031146     0.031144     0.021766
Rotational constants in MHz :   933.731625   933.679962   652.524637

                             ****ORCA TERMINATED NORMALLY****
TOTAL RUN TIME: 0 days 0 hours 0 minutes 20 seconds 942 msec
