                         Program Version 4.2.0 -  RELEASE  -
|  1> #
|  2> # MOR04_c2h6 ri-B2PLYP-D3BJ/Def2-TZVPPD
|  3> #
|  4> ! rijk ri-b2plyp d3bj def2-tzvppd def2/jk def2-tzvppd/c grid4 nofinalgrid
|  5>
|  6> *xyz 0 1
|  7> C       -0.765850   -0.000004    0.000000
|  8> C        0.765850    0.000004    0.000000
|  9> H       -1.162381   -1.020936   -0.022850
| 10> H       -1.162409    0.530251   -0.872720
| 11> H       -1.162411    0.490675    0.895568
| 12> H        1.162410   -0.530239    0.872727
| 13> H        1.162411   -0.490686   -0.895561
| 14> H        1.162381    1.020936    0.022836
| 15> *
| 16>
| 17> %maxcore 5000
| 18>
| 19> %pal
| 20> nprocs = 24
| 21> end
| 22>
| 23>
| 24>                          ****END OF INPUT****

CARTESIAN COORDINATES (ANGSTROEM)
---------------------------------
  C     -0.765850   -0.000004    0.000000
  C      0.765850    0.000004    0.000000
  H     -1.162381   -1.020936   -0.022850
  H     -1.162409    0.530251   -0.872720
  H     -1.162411    0.490675    0.895568
  H      1.162410   -0.530239    0.872727
  H      1.162411   -0.490686   -0.895561
  H      1.162381    1.020936    0.022836

 Total Charge           Charge          ....    0
 Multiplicity           Mult            ....    1
 Number of Electrons    NEL             ....   18
 Basis Dimension        Dim             ....  176

ORBITAL ENERGIES
----------------

  NO   OCC          E(Eh)            E(eV)
   0   2.0000     -10.600383      -288.4511
   1   2.0000     -10.600003      -288.4408
   2   2.0000      -0.861678       -23.4475
   3   2.0000      -0.709155       -19.2971
   4   2.0000      -0.502072       -13.6621
   5   2.0000      -0.502067       -13.6619
   6   2.0000      -0.427014       -11.6196
   7   2.0000      -0.403540       -10.9809
   8   2.0000      -0.403537       -10.9808
   9   0.0000       0.038901         1.0586
  10   0.0000       0.060493         1.6461
  11   0.0000       0.102801         2.7974
  12   0.0000       0.102815         2.7977
  13   0.0000       0.127399         3.4667

MULLIKEN ATOMIC CHARGES
-----------------------
   0 C :   -0.209466
   1 C :   -0.209527
   2 H :    0.069886
   3 H :    0.069756
   4 H :    0.069838
   5 H :    0.069770
   6 H :    0.069853
   7 H :    0.069889
Sum of atomic charges:    0.0000000

LOEWDIN ATOMIC CHARGES
----------------------
   0 C :    0.078576
   1 C :    0.078576
   2 H :   -0.026194
   3 H :   -0.026191
   4 H :   -0.026191
   5 H :   -0.026191
   6 H :   -0.026191
   7 H :   -0.026194

  Mayer bond orders larger than 0.100000
B(  0-C ,  1-C ) :   0.7819 B(  0-C ,  2-H ) :   1.0241 B(  0-C ,  3-H ) :   1.0243
B(  0-C ,  4-H ) :   1.0242 B(  1-C ,  5-H ) :   1.0243 B(  1-C ,  6-H ) :   1.0242
B(  1-C ,  7-H ) :   1.0241

MP2 TOTAL ENERGY:      -79.773798525 Eh
Dispersion correction           -0.002306819
FINAL SINGLE POINT ENERGY       -79.776105343392

DIPOLE MOMENT
-------------
                                X             Y             Z
Electronic contribution:     -0.00000      -0.00000      -0.00000
Nuclear contribution   :      0.00000       0.00000      -0.00000
                        -----------------------------------------
Total Dipole Moment    :      0.00000       0.00000      -0.00000
                        -----------------------------------------
Magnitude (a.u.)       :      0.00000
Magnitude (Debye)      :      0.00000

Rotational constants in cm-1:     2.672873     0.663298     0.663297
Rotational constants in MHz : 80130.723455 19885.185427 19885.132514

                             ****ORCA TERMINATED NORMALLY****
TOTAL RUN TIME: 0 days 0 hours 0 minutes 3 seconds 885 msec
