                         Program Version 4.2.0 -  RELEASE  -
|  1> #
|  2> # MOR05_co ri-B2PLYP-D3BJ/Def2-TZVPPD
|  3> #
|  4> ! rijk ri-b2plyp d3bj def2-tzvppd def2/jk def2-tzvppd/c grid4 nofinalgrid
|  5>
|  6> *xyz 0 1
|  7> O        0.000000    0.000000    0.486237
|  8> C        0.000000    0.000000   -0.648315
|  9> *
| 10>
| 11> %maxcore 5000
| 12>
| 13> %pal
| 14> nprocs = 24
| 15> end
| 16>
| 17>
| 18>                          ****END OF INPUT****

CARTESIAN COORDINATES (ANGSTROEM)
---------------------------------
  O      0.000000    0.000000    0.486237
  C      0.000000    0.000000   -0.648315

 Total Charge           Charge          ....    0
 Multiplicity           Mult            ....    1
 Number of Electrons    NEL             ....   14
 Basis Dimension        Dim             ....   77

ORBITAL ENERGIES
----------------

  NO   OCC          E(Eh)            E(eV)
   0   2.0000     -19.836625      -539.7820
   1   2.0000     -10.744591      -292.3752
   2   2.0000      -1.314095       -35.7583
   3   2.0000      -0.676000       -18.3949
   4   2.0000      -0.547173       -14.8893
   5   2.0000      -0.547173       -14.8893
   6   2.0000      -0.457308       -12.4440
   7   0.0000       0.028126         0.7654
   8   0.0000       0.028126         0.7654
   9   0.0000       0.048112         1.3092
  10   0.0000       0.088425         2.4062
  11   0.0000       0.090834         2.4717

MULLIKEN ATOMIC CHARGES
-----------------------
   0 O :   -0.151615
   1 C :    0.151615
Sum of atomic charges:   -0.0000000

LOEWDIN ATOMIC CHARGES
----------------------
   0 O :   -0.009360
   1 C :    0.009360

  Mayer bond orders larger than 0.100000
B(  0-O ,  1-C ) :   2.3596

MP2 TOTAL ENERGY:     -113.289447335 Eh
Dispersion correction           -0.000323829
FINAL SINGLE POINT ENERGY      -113.289771164465

DIPOLE MOMENT
-------------
                                X             Y             Z
Electronic contribution:      0.00000      -0.00000      -0.04243
Nuclear contribution   :      0.00000       0.00000       0.00720
                        -----------------------------------------
Total Dipole Moment    :      0.00000      -0.00000      -0.03523
                        -----------------------------------------
Magnitude (a.u.)       :      0.03523
Magnitude (Debye)      :      0.08955

Rotational constants in cm-1:     0.000000     1.908926     1.908926
Rotational constants in MHz :     0.000000 57228.174924 57228.174924

                             ****ORCA TERMINATED NORMALLY****
TOTAL RUN TIME: 0 days 0 hours 0 minutes 3 seconds 369 msec
