                         Program Version 4.2.0 -  RELEASE  -
|  1> #
|  2> # MOR03_c2h4 ri-B2PLYP-D3BJ/Def2-TZVPPD
|  3> #
|  4> ! rijk ri-b2plyp d3bj def2-tzvppd def2/jk def2-tzvppd/c grid4 nofinalgrid
|  5>
|  6> *xyz 0 1
|  7> C        0.000000    0.665348   -0.000001
|  8> C        0.000000   -0.665348   -0.000001
|  9> H       -0.924311    1.237390    0.000003
| 10> H        0.924311    1.237390    0.000003
| 11> H        0.924311   -1.237390    0.000003
| 12> H       -0.924311   -1.237390    0.000003
| 13> *
| 14>
| 15> %maxcore 5000
| 16>
| 17> %pal
| 18> nprocs = 24
| 19> end
| 20>
| 21>
| 22>                          ****END OF INPUT****

CARTESIAN COORDINATES (ANGSTROEM)
---------------------------------
  C      0.000000    0.665348   -0.000001
  C      0.000000   -0.665348   -0.000001
  H     -0.924311    1.237390    0.000003
  H      0.924311    1.237390    0.000003
  H      0.924311   -1.237390    0.000003
  H     -0.924311   -1.237390    0.000003

 Total Charge           Charge          ....    0
 Multiplicity           Mult            ....    1
 Number of Electrons    NEL             ....   16
 Basis Dimension        Dim             ....  142

ORBITAL ENERGIES
----------------

  NO   OCC          E(Eh)            E(eV)
   0   2.0000     -10.617186      -288.9083
   1   2.0000     -10.615924      -288.8740
   2   2.0000      -0.876439       -23.8491
   3   2.0000      -0.670241       -18.2382
   4   2.0000      -0.543437       -14.7877
   5   2.0000      -0.494056       -13.4439
   6   2.0000      -0.419984       -11.4283
   7   2.0000      -0.321618        -8.7517
   8   0.0000       0.044384         1.2077
   9   0.0000       0.051066         1.3896
  10   0.0000       0.058907         1.6029
  11   0.0000       0.093953         2.5566
  12   0.0000       0.135177         3.6784

MULLIKEN ATOMIC CHARGES
-----------------------
   0 C :   -0.109264
   1 C :   -0.109312
   2 H :    0.054647
   3 H :    0.054651
   4 H :    0.054643
   5 H :    0.054635
Sum of atomic charges:    0.0000000

LOEWDIN ATOMIC CHARGES
----------------------
   0 C :    0.102281
   1 C :    0.102281
   2 H :   -0.051140
   3 H :   -0.051140
   4 H :   -0.051140
   5 H :   -0.051141

  Mayer bond orders larger than 0.100000
B(  0-C ,  1-C ) :   1.8208 B(  0-C ,  2-H ) :   1.0125 B(  0-C ,  3-H ) :   1.0125
B(  1-C ,  4-H ) :   1.0125 B(  1-C ,  5-H ) :   1.0125

MP2 TOTAL ENERGY:      -78.541292999 Eh
Dispersion correction           -0.001701726
FINAL SINGLE POINT ENERGY       -78.542994724604

DIPOLE MOMENT
-------------
                                X             Y             Z
Electronic contribution:      0.00000      -0.00000      -0.00001
Nuclear contribution   :      0.00000       0.00000       0.00001
                        -----------------------------------------
Total Dipole Moment    :      0.00000      -0.00000       0.00000
                        -----------------------------------------
Magnitude (a.u.)       :      0.00000
Magnitude (Debye)      :      0.00001

Rotational constants in cm-1:     4.893731     1.002967     0.832372
Rotational constants in MHz : 146710.378489 30068.182911 24953.899728

                             ****ORCA TERMINATED NORMALLY****
TOTAL RUN TIME: 0 days 0 hours 0 minutes 3 seconds 591 msec
