                         Program Version 4.2.0 -  RELEASE  -
|  1> #
|  2> # MOR17_ed36 ri-B2PLYP-D3BJ/Def2-TZVPPD
|  3> #
|  4> ! rijk ri-b2plyp d3bj def2-tzvppd def2/jk def2-tzvppd/c grid4 nofinalgrid
|  5>
|  6> *xyz 0 1
|  7> Mo      -0.000266    0.073285   -0.001759
|  8> C        1.725893   -0.773990   -1.226681
|  9> C        2.211696    0.414668   -0.610995
| 10> C        2.192326    0.250811    0.809261
| 11> C        1.685230   -1.035926    1.105715
| 12> C        1.413513   -1.680058   -0.153190
| 13> H        1.704188   -0.987838   -2.284881
| 14> H        2.536107    1.301869   -1.133102
| 15> H        2.493190    0.988099    1.537778
| 16> H        1.573828   -1.467340    2.089978
| 17> H        1.067801   -2.694661   -0.276651
| 18> C       -1.407221   -1.685804    0.112781
| 19> C       -1.709531   -0.814976    1.218351
| 20> C       -2.202710    0.272498   -0.775202
| 21> C       -1.695077   -1.002456   -1.122045
| 22> H       -1.669608   -1.061100    2.269076
| 23> H       -2.528690    1.258371    1.205067
| 24> C       -2.207491    0.390536    0.649493
| 25> H       -1.601566   -1.403288   -2.120864
| 26> H       -1.058155   -2.702954    0.200059
| 27> C        0.040880    2.214506    0.720862
| 28> H        0.978366    2.504794    1.184780
| 29> H       -0.817411    2.527371    1.307308
| 30> C       -0.044841    2.215313   -0.718681
| 31> H        0.814149    2.526211   -1.305102
| 32> H       -0.980875    2.509977   -1.182445
| 33> H       -2.516160    1.031799   -1.475134
| 34> *
| 35>
| 36> %maxcore 5000
| 37>
| 38> %pal
| 39> nprocs = 24
| 40> end
| 41>
| 42>
| 43>                          ****END OF INPUT****

CARTESIAN COORDINATES (ANGSTROEM)
---------------------------------
  Mo    -0.000266    0.073285   -0.001759
  C      1.725893   -0.773990   -1.226681
  C      2.211696    0.414668   -0.610995
  C      2.192326    0.250811    0.809261
  C      1.685230   -1.035926    1.105715
  C      1.413513   -1.680058   -0.153190
  H      1.704188   -0.987838   -2.284881
  H      2.536107    1.301869   -1.133102
  H      2.493190    0.988099    1.537778
  H      1.573828   -1.467340    2.089978
  H      1.067801   -2.694661   -0.276651
  C     -1.407221   -1.685804    0.112781
  C     -1.709531   -0.814976    1.218351
  C     -2.202710    0.272498   -0.775202
  C     -1.695077   -1.002456   -1.122045
  H     -1.669608   -1.061100    2.269076
  H     -2.528690    1.258371    1.205067
  C     -2.207491    0.390536    0.649493
  H     -1.601566   -1.403288   -2.120864
  H     -1.058155   -2.702954    0.200059
  C      0.040880    2.214506    0.720862
  H      0.978366    2.504794    1.184780
  H     -0.817411    2.527371    1.307308
  C     -0.044841    2.215313   -0.718681
  H      0.814149    2.526211   -1.305102
  H     -0.980875    2.509977   -1.182445
  H     -2.516160    1.031799   -1.475134

 Total Charge           Charge          ....    0
 Multiplicity           Mult            ....    1
 Number of Electrons    NEL             ....  100
 Basis Dimension        Dim             ....  738

ORBITAL ENERGIES
----------------

  NO   OCC          E(Eh)            E(eV)
   0   2.0000     -10.628145      -289.2065
   1   2.0000     -10.628004      -289.2027
   2   2.0000     -10.627887      -289.1995
   3   2.0000     -10.627786      -289.1968
   4   2.0000     -10.626961      -289.1743
   5   2.0000     -10.626436      -289.1600
   6   2.0000     -10.626142      -289.1520
   7   2.0000     -10.626097      -289.1508
   8   2.0000     -10.624025      -289.0944
   9   2.0000     -10.623617      -289.0833
  10   2.0000     -10.583445      -287.9902
  11   2.0000     -10.582726      -287.9706
  12   2.0000      -2.742205       -74.6192
  13   2.0000      -1.699033       -46.2331
  14   2.0000      -1.681157       -45.7466
  15   2.0000      -1.657170       -45.0939
  16   2.0000      -1.012061       -27.5396
  17   2.0000      -0.994639       -27.0655
  18   2.0000      -0.837909       -22.8007
  19   2.0000      -0.825087       -22.4518
  20   2.0000      -0.821763       -22.3613
  21   2.0000      -0.821399       -22.3514
  22   2.0000      -0.817203       -22.2372
  23   2.0000      -0.660257       -17.9665
  24   2.0000      -0.642597       -17.4860
  25   2.0000      -0.628460       -17.1013
  26   2.0000      -0.627118       -17.0647
  27   2.0000      -0.625501       -17.0207
  28   2.0000      -0.616770       -16.7832
  29   2.0000      -0.606317       -16.4987
  30   2.0000      -0.505410       -13.7529
  31   2.0000      -0.481525       -13.1030
  32   2.0000      -0.478206       -13.0126
  33   2.0000      -0.475808       -12.9474
  34   2.0000      -0.472701       -12.8629
  35   2.0000      -0.467740       -12.7279
  36   2.0000      -0.463567       -12.6143
  37   2.0000      -0.449323       -12.2267
  38   2.0000      -0.448283       -12.1984
  39   2.0000      -0.445410       -12.1202
  40   2.0000      -0.442479       -12.0405
  41   2.0000      -0.417831       -11.3698
  42   2.0000      -0.392053       -10.6683
  43   2.0000      -0.315343        -8.5809
  44   2.0000      -0.311597        -8.4790
  45   2.0000      -0.308648        -8.3987
  46   2.0000      -0.293854        -7.9962
  47   2.0000      -0.292694        -7.9646
  48   2.0000      -0.223237        -6.0746
  49   2.0000      -0.202785        -5.5181
  50   0.0000       0.029109         0.7921
  51   0.0000       0.037893         1.0311
  52   0.0000       0.043985         1.1969
  53   0.0000       0.044519         1.2114
  54   0.0000       0.057346         1.5605

MULLIKEN ATOMIC CHARGES
-----------------------
   0 Mo:   -0.771242
   1 C :    0.159127
   2 C :   -0.134925
   3 C :   -0.086895
   4 C :    0.274615
   5 C :   -0.187972
   6 H :   -0.049720
   7 H :    0.123842
   8 H :    0.058501
   9 H :    0.018121
  10 H :    0.176407
  11 C :   -0.186396
  12 C :    0.144521
  13 C :   -0.094135
  14 C :    0.268534
  15 H :   -0.046039
  16 H :    0.120069
  17 C :   -0.122588
  18 H :    0.009111
  19 H :    0.182761
  20 C :   -0.018528
  21 H :    0.047649
  22 H :    0.021099
  23 C :   -0.040106
  24 H :    0.013866
  25 H :    0.050108
  26 H :    0.070213
Sum of atomic charges:   -0.0000000

LOEWDIN ATOMIC CHARGES
----------------------
   0 Mo:    1.080499
   1 C :   -0.063784
   2 C :   -0.079896
   3 C :   -0.070224
   4 C :   -0.059248
   5 C :   -0.090038
   6 H :   -0.002620
   7 H :    0.000759
   8 H :    0.000513
   9 H :    0.002174
  10 H :   -0.005724
  11 C :   -0.090382
  12 C :   -0.064205
  13 C :   -0.071320
  14 C :   -0.059346
  15 H :   -0.002172
  16 H :    0.000691
  17 C :   -0.077701
  18 H :    0.001445
  19 H :   -0.005907
  20 C :   -0.034331
  21 H :   -0.068029
  22 H :   -0.068494
  23 C :   -0.035463
  24 H :   -0.068828
  25 H :   -0.068640
  26 H :    0.000274

  Mayer bond orders larger than 0.100000
B(  0-Mo,  1-C ) :   0.1901 B(  0-Mo,  2-C ) :   0.6924 B(  0-Mo,  3-C ) :   0.4782
B(  0-Mo,  4-C ) :   0.2245 B(  0-Mo,  5-C ) :   0.7758 B(  0-Mo, 11-C ) :   0.7818
B(  0-Mo, 12-C ) :   0.2071 B(  0-Mo, 13-C ) :   0.5078 B(  0-Mo, 14-C ) :   0.2143
B(  0-Mo, 17-C ) :   0.6658 B(  0-Mo, 20-C ) :   0.7290 B(  0-Mo, 23-C ) :   0.7415
B(  1-C ,  2-C ) :   1.1889 B(  1-C ,  3-C ) :  -0.1878 B(  1-C ,  4-C ) :  -0.1176
B(  1-C ,  5-C ) :   1.1077 B(  1-C ,  6-H ) :   1.0194 B(  1-C , 11-C ) :  -0.1071
B(  1-C , 12-C ) :   0.1612 B(  1-C , 14-C ) :   0.1873 B(  1-C , 17-C ) :  -0.1756
B(  2-C ,  3-C ) :   1.1619 B(  2-C ,  4-C ) :  -0.1516 B(  2-C ,  7-H ) :   0.9137
B(  2-C , 12-C ) :  -0.1883 B(  2-C , 17-C ) :   0.1120 B(  2-C , 20-C ) :  -0.1016
B(  3-C ,  4-C ) :   1.1943 B(  3-C ,  8-H ) :   0.9316 B(  3-C , 20-C ) :   0.1111
B(  3-C , 23-C ) :  -0.1111 B(  4-C ,  5-C ) :   1.1519 B(  4-C ,  9-H ) :   0.9512
B(  4-C , 11-C ) :  -0.1156 B(  4-C , 12-C ) :   0.1703 B(  4-C , 14-C ) :   0.1122
B(  5-C , 10-H ) :   0.8955 B(  5-C , 11-C ) :   0.2550 B(  5-C , 12-C ) :  -0.1048
B(  5-C , 14-C ) :  -0.1152 B( 11-C , 12-C ) :   1.1124 B( 11-C , 14-C ) :   1.1550
B( 11-C , 19-H ) :   0.8914 B( 12-C , 13-C ) :  -0.1943 B( 12-C , 14-C ) :  -0.1241
B( 12-C , 15-H ) :   1.0160 B( 12-C , 17-C ) :   1.1992 B( 13-C , 14-C ) :   1.1926
B( 13-C , 17-C ) :   1.1659 B( 13-C , 20-C ) :  -0.1142 B( 13-C , 23-C ) :   0.1173
B( 13-C , 26-H ) :   0.9282 B( 14-C , 17-C ) :  -0.1453 B( 14-C , 18-H ) :   0.9595
B( 16-H , 17-C ) :   0.9116 B( 20-C , 21-H ) :   1.0425 B( 20-C , 22-H ) :   1.0541
B( 20-C , 23-C ) :   0.8014 B( 23-C , 24-H ) :   1.0617 B( 23-C , 25-H ) :   1.0403

MP2 TOTAL ENERGY:     -533.605073731 Eh
Dispersion correction           -0.032907491
FINAL SINGLE POINT ENERGY      -533.637981221938

DIPOLE MOMENT
-------------
                                X             Y             Z
Electronic contribution:     -0.01320       0.78258      -0.10952
Nuclear contribution   :      0.01285      -1.32377       0.12031
                        -----------------------------------------
Total Dipole Moment    :     -0.00035      -0.54119       0.01079
                        -----------------------------------------
Magnitude (a.u.)       :      0.54129
Magnitude (Debye)      :      1.37586

Rotational constants in cm-1:     0.040116     0.028148     0.022583
Rotational constants in MHz :  1202.641010   843.851559   677.032187

                             ****ORCA TERMINATED NORMALLY****
TOTAL RUN TIME: 0 days 0 hours 1 minutes 3 seconds 63 msec
