                         Program Version 4.2.0 -  RELEASE  -
|  1> #
|  2> # MOR13_ed24 ri-B2PLYP-D3BJ/Def2-TZVPPD
|  3> #
|  4> ! rijk ri-b2plyp d3bj def2-tzvppd def2/jk def2-tzvppd/c grid4 nofinalgrid
|  5>
|  6> *xyz 0 1
|  7> Ru       0.947158   -0.829727   -0.745491
|  8> Cl       0.759536   -0.029843   -2.889353
|  9> Cl       0.924249   -2.813196    0.406526
| 10> P       -0.892858    0.059346    0.070519
| 11> C        2.105770    0.298407    0.120511
| 12> C       -1.060848    0.304387    1.904454
| 13> C       -0.839571   -1.004781    2.681683
| 14> C       -1.204393   -0.821649    4.161076
| 15> C       -0.398097    0.318884    4.794081
| 16> C       -0.569062    1.619286    3.999752
| 17> C       -0.203235    1.422010    2.520494
| 18> C       -1.361193    1.675223   -0.723442
| 19> C       -0.190670    2.668218   -0.863157
| 20> C       -0.617010    3.874515   -1.709852
| 21> C       -1.846047    4.572418   -1.115292
| 22> C       -3.005112    3.584426   -0.940399
| 23> C       -2.585621    2.369196   -0.098214
| 24> C       -2.266825   -1.149912   -0.318948
| 25> C       -3.572387   -1.071522    0.495585
| 26> C       -4.464103   -2.278800    0.161919
| 27> C       -4.771803   -2.353480   -1.338652
| 28> C       -3.481398   -2.368379   -2.166970
| 29> C       -2.587234   -1.168835   -1.825450
| 30> H        1.784946    1.202955    0.645761
| 31> H       -2.115821    0.600966    2.014947
| 32> H        0.212402   -1.294098    2.586311
| 33> H       -1.418447   -1.824644    2.245913
| 34> H       -1.028300   -1.758851    4.701667
| 35> H       -2.278352   -0.600113    4.247046
| 36> H        0.665500    0.042496    4.804792
| 37> H       -0.699682    0.468438    5.837587
| 38> H        0.050942    2.415093    4.429614
| 39> H       -1.613622    1.955784    4.068877
| 40> H       -0.334942    2.362910    1.978268
| 41> H        0.854749    1.145201    2.447640
| 42> H       -1.618911    1.357234   -1.743817
| 43> H        0.662106    2.166051   -1.325328
| 44> H        0.125060    3.019280    0.127484
| 45> H       -0.846735    3.527698   -2.726710
| 46> H        0.219033    4.578695   -1.795316
| 47> H       -2.156025    5.410629   -1.750528
| 48> H       -1.583038    4.996180   -0.135073
| 49> H       -3.336384    3.234608   -1.928191
| 50> H       -3.864727    4.078543   -0.471441
| 51> H       -2.338056    2.702879    0.918040
| 52> H       -3.425897    1.674720   -0.010060
| 53> H       -1.782812   -2.105972   -0.070582
| 54> H       -4.113822   -0.149509    0.251918
| 55> H       -3.369403   -1.053503    1.570362
| 56> H       -5.393534   -2.221008    0.741223
| 57> H       -3.947864   -3.196972    0.475160
| 58> H       -5.374229   -1.479434   -1.625752
| 59> H       -5.376744   -3.241409   -1.557196
| 60> H       -3.714322   -2.363052   -3.238224
| 61> H       -2.925851   -3.294401   -1.964642
| 62> H       -1.666731   -1.193589   -2.417765
| 63> H       -3.111760   -0.241279   -2.093787
| 64> C        3.546496    0.126586    0.028364
| 65> C        4.389877    1.228237    0.286046
| 66> C        5.770146    1.113346    0.161104
| 67> C        6.339467   -0.106460   -0.212258
| 68> C        5.519417   -1.212931   -0.453677
| 69> C        4.139965   -1.102236   -0.332827
| 70> H        3.943201    2.177101    0.573360
| 71> H        6.405205    1.972855    0.357301
| 72> H        5.961339   -2.166857   -0.726887
| 73> H        3.508028   -1.975261   -0.480581
| 74> H        7.417884   -0.197821   -0.305099
| 75> *
| 76>
| 77> %maxcore 5000
| 78>
| 79> %pal
| 80> nprocs = 24
| 81> end
| 82>
| 83>
| 84>                          ****END OF INPUT****

CARTESIAN COORDINATES (ANGSTROEM)
---------------------------------
  Ru     0.947158   -0.829727   -0.745491
  Cl     0.759536   -0.029843   -2.889353
  Cl     0.924249   -2.813196    0.406526
  P     -0.892858    0.059346    0.070519
  C      2.105770    0.298407    0.120511
  C     -1.060848    0.304387    1.904454
  C     -0.839571   -1.004781    2.681683
  C     -1.204393   -0.821649    4.161076
  C     -0.398097    0.318884    4.794081
  C     -0.569062    1.619286    3.999752
  C     -0.203235    1.422010    2.520494
  C     -1.361193    1.675223   -0.723442
  C     -0.190670    2.668218   -0.863157
  C     -0.617010    3.874515   -1.709852
  C     -1.846047    4.572418   -1.115292
  C     -3.005112    3.584426   -0.940399
  C     -2.585621    2.369196   -0.098214
  C     -2.266825   -1.149912   -0.318948
  C     -3.572387   -1.071522    0.495585
  C     -4.464103   -2.278800    0.161919
  C     -4.771803   -2.353480   -1.338652
  C     -3.481398   -2.368379   -2.166970
  C     -2.587234   -1.168835   -1.825450
  H      1.784946    1.202955    0.645761
  H     -2.115821    0.600966    2.014947
  H      0.212402   -1.294098    2.586311
  H     -1.418447   -1.824644    2.245913
  H     -1.028300   -1.758851    4.701667
  H     -2.278352   -0.600113    4.247046
  H      0.665500    0.042496    4.804792
  H     -0.699682    0.468438    5.837587
  H      0.050942    2.415093    4.429614
  H     -1.613622    1.955784    4.068877
  H     -0.334942    2.362910    1.978268
  H      0.854749    1.145201    2.447640
  H     -1.618911    1.357234   -1.743817
  H      0.662106    2.166051   -1.325328
  H      0.125060    3.019280    0.127484
  H     -0.846735    3.527698   -2.726710
  H      0.219033    4.578695   -1.795316
  H     -2.156025    5.410629   -1.750528
  H     -1.583038    4.996180   -0.135073
  H     -3.336384    3.234608   -1.928191
  H     -3.864727    4.078543   -0.471441
  H     -2.338056    2.702879    0.918040
  H     -3.425897    1.674720   -0.010060
  H     -1.782812   -2.105972   -0.070582
  H     -4.113822   -0.149509    0.251918
  H     -3.369403   -1.053503    1.570362
  H     -5.393534   -2.221008    0.741223
  H     -3.947864   -3.196972    0.475160
  H     -5.374229   -1.479434   -1.625752
  H     -5.376744   -3.241409   -1.557196
  H     -3.714322   -2.363052   -3.238224
  H     -2.925851   -3.294401   -1.964642
  H     -1.666731   -1.193589   -2.417765
  H     -3.111760   -0.241279   -2.093787
  C      3.546496    0.126586    0.028364
  C      4.389877    1.228237    0.286046
  C      5.770146    1.113346    0.161104
  C      6.339467   -0.106460   -0.212258
  C      5.519417   -1.212931   -0.453677
  C      4.139965   -1.102236   -0.332827
  H      3.943201    2.177101    0.573360
  H      6.405205    1.972855    0.357301
  H      5.961339   -2.166857   -0.726887
  H      3.508028   -1.975261   -0.480581
  H      7.417884   -0.197821   -0.305099

 Total Charge           Charge          ....    0
 Multiplicity           Mult            ....    1
 Number of Electrons    NEL             ....  254
 Basis Dimension        Dim             .... 1794

ORBITAL ENERGIES
----------------

  NO   OCC          E(Eh)            E(eV)
   0   2.0000    -102.845961     -2798.5809
   1   2.0000    -102.845032     -2798.5556
   2   2.0000     -78.300870     -2130.6750
   3   2.0000     -10.650917      -289.8262
   4   2.0000     -10.637495      -289.4610
   5   2.0000     -10.634329      -289.3748
   6   2.0000     -10.633603      -289.3550
   7   2.0000     -10.632622      -289.3284
   8   2.0000     -10.630605      -289.2735
   9   2.0000     -10.630477      -289.2700
  10   2.0000     -10.630135      -289.2607
  11   2.0000     -10.629369      -289.2398
  12   2.0000     -10.627843      -289.1983
  13   2.0000     -10.622913      -289.0641
  14   2.0000     -10.622850      -289.0624
  15   2.0000     -10.620996      -289.0120
  16   2.0000     -10.616647      -288.8936
  17   2.0000     -10.615281      -288.8565
  18   2.0000     -10.613228      -288.8006
  19   2.0000     -10.613167      -288.7990
  20   2.0000     -10.611556      -288.7551
  21   2.0000     -10.611542      -288.7547
  22   2.0000     -10.611219      -288.7459
  23   2.0000     -10.611023      -288.7406
  24   2.0000     -10.610884      -288.7368
  25   2.0000     -10.609525      -288.6998
  26   2.0000     -10.608529      -288.6727
  27   2.0000     -10.608223      -288.6644
  28   2.0000      -9.851883      -268.0834
  29   2.0000      -9.850936      -268.0576
  30   2.0000      -7.489328      -203.7950
  31   2.0000      -7.488375      -203.7690
  32   2.0000      -7.487251      -203.7385
  33   2.0000      -7.486863      -203.7279
  34   2.0000      -7.486323      -203.7132
  35   2.0000      -7.485909      -203.7019
  36   2.0000      -6.967860      -189.6051
  37   2.0000      -5.019006      -136.5741
  38   2.0000      -5.018908      -136.5714
  39   2.0000      -5.017591      -136.5356
  40   2.0000      -3.254528       -88.5602
  41   2.0000      -2.039786       -55.5054
  42   2.0000      -2.035993       -55.4022
  43   2.0000      -2.028135       -55.1884
  44   2.0000      -0.991921       -26.9915
  45   2.0000      -0.972977       -26.4760
  46   2.0000      -0.958732       -26.0884
  47   2.0000      -0.957411       -26.0525
  48   2.0000      -0.894592       -24.3431
  49   2.0000      -0.888669       -24.1819
  50   2.0000      -0.869676       -23.6651
  51   2.0000      -0.867472       -23.6051
  52   2.0000      -0.864636       -23.5279
  53   2.0000      -0.859924       -23.3997
  54   2.0000      -0.859414       -23.3858
  55   2.0000      -0.857705       -23.3393
  56   2.0000      -0.854539       -23.2532
  57   2.0000      -0.853197       -23.2167
  58   2.0000      -0.772768       -21.0281
  59   2.0000      -0.759683       -20.6720
  60   2.0000      -0.718902       -19.5623
  61   2.0000      -0.712643       -19.3920
  62   2.0000      -0.709714       -19.3123
  63   2.0000      -0.708365       -19.2756
  64   2.0000      -0.704417       -19.1682
  65   2.0000      -0.700703       -19.0671
  66   2.0000      -0.671875       -18.2827
  67   2.0000      -0.656405       -17.8617
  68   2.0000      -0.652751       -17.7623
  69   2.0000      -0.651247       -17.7213
  70   2.0000      -0.624073       -16.9819
  71   2.0000      -0.596203       -16.2235
  72   2.0000      -0.563973       -15.3465
  73   2.0000      -0.558146       -15.1879
  74   2.0000      -0.550706       -14.9855
  75   2.0000      -0.549095       -14.9416
  76   2.0000      -0.536088       -14.5877
  77   2.0000      -0.523267       -14.2388
  78   2.0000      -0.522712       -14.2237
  79   2.0000      -0.521170       -14.1817
  80   2.0000      -0.518698       -14.1145
  81   2.0000      -0.514335       -13.9958
  82   2.0000      -0.514257       -13.9936
  83   2.0000      -0.508540       -13.8381
  84   2.0000      -0.504592       -13.7306
  85   2.0000      -0.501827       -13.6554
  86   2.0000      -0.494788       -13.4639
  87   2.0000      -0.489339       -13.3156
  88   2.0000      -0.461903       -12.5690
  89   2.0000      -0.454945       -12.3797
  90   2.0000      -0.453427       -12.3384
  91   2.0000      -0.451895       -12.2967
  92   2.0000      -0.450350       -12.2546
  93   2.0000      -0.449930       -12.2432
  94   2.0000      -0.447457       -12.1759
  95   2.0000      -0.436521       -11.8783
  96   2.0000      -0.435738       -11.8570
  97   2.0000      -0.428496       -11.6600
  98   2.0000      -0.422904       -11.5078
  99   2.0000      -0.420606       -11.4453
 100   2.0000      -0.418263       -11.3815
 101   2.0000      -0.417122       -11.3505
 102   2.0000      -0.412164       -11.2156
 103   2.0000      -0.410859       -11.1800
 104   2.0000      -0.408773       -11.1233
 105   2.0000      -0.405324       -11.0294
 106   2.0000      -0.401351       -10.9213
 107   2.0000      -0.396143       -10.7796
 108   2.0000      -0.394273       -10.7287
 109   2.0000      -0.388487       -10.5713
 110   2.0000      -0.387473       -10.5437
 111   2.0000      -0.383259       -10.4290
 112   2.0000      -0.380582       -10.3562
 113   2.0000      -0.369711       -10.0603
 114   2.0000      -0.365755        -9.9527
 115   2.0000      -0.364978        -9.9316
 116   2.0000      -0.354737        -9.6529
 117   2.0000      -0.347444        -9.4544
 118   2.0000      -0.344202        -9.3662
 119   2.0000      -0.341162        -9.2835
 120   2.0000      -0.339223        -9.2307
 121   2.0000      -0.335307        -9.1242
 122   2.0000      -0.319752        -8.7009
 123   2.0000      -0.301886        -8.2147
 124   2.0000      -0.291039        -7.9196
 125   2.0000      -0.267447        -7.2776
 126   2.0000      -0.249887        -6.7998
 127   0.0000      -0.032717        -0.8903
 128   0.0000      -0.008067        -0.2195
 129   0.0000       0.016492         0.4488
 130   0.0000       0.018925         0.5150
 131   0.0000       0.026063         0.7092

MULLIKEN ATOMIC CHARGES
-----------------------
   0 Ru:   -1.862383
   1 Cl:   -0.627302
   2 Cl:   -0.626751
   3 P :    1.252548
   4 C :    1.398825
   5 C :    0.409842
   6 C :   -0.475486
   7 C :   -0.356822
   8 C :   -0.272019
   9 C :   -0.461245
  10 C :    0.185501
  11 C :    0.443560
  12 C :   -0.313802
  13 C :   -0.368122
  14 C :   -0.237063
  15 C :   -0.403980
  16 C :    0.259846
  17 C :    0.498357
  18 C :    0.185023
  19 C :   -0.295382
  20 C :   -0.318438
  21 C :   -0.309153
  22 C :   -0.509135
  23 H :    0.087200
  24 H :    0.510031
  25 H :    0.108922
  26 H :    0.111668
  27 H :    0.071730
  28 H :    0.116547
  29 H :    0.093591
  30 H :    0.110597
  31 H :    0.077899
  32 H :    0.133511
  33 H :   -0.142526
  34 H :    0.095021
  35 H :    0.649482
  36 H :   -0.085484
  37 H :    0.153986
  38 H :    0.109377
  39 H :    0.067731
  40 H :    0.093464
  41 H :    0.072988
  42 H :    0.115372
  43 H :    0.075939
  44 H :    0.117391
  45 H :   -0.362420
  46 H :    0.508457
  47 H :    0.078270
  48 H :   -0.326580
  49 H :    0.058473
  50 H :    0.153015
  51 H :    0.090274
  52 H :    0.091497
  53 H :    0.061299
  54 H :    0.107420
  55 H :    0.224396
  56 H :    0.080296
  57 C :    0.169220
  58 C :   -0.310571
  59 C :   -0.175949
  60 C :    0.045423
  61 C :   -0.274325
  62 C :    0.016618
  63 H :   -0.094071
  64 H :   -0.022579
  65 H :   -0.027684
  66 H :   -0.041163
  67 H :    0.009827
Sum of atomic charges:   -0.0000000

LOEWDIN ATOMIC CHARGES
----------------------
   0 Ru:    0.382815
   1 Cl:   -0.046073
   2 Cl:   -0.044859
   3 P :    1.015127
   4 C :   -0.119829
   5 C :   -0.272858
   6 C :   -0.059106
   7 C :   -0.004843
   8 C :   -0.014194
   9 C :   -0.004655
  10 C :   -0.024266
  11 C :   -0.279168
  12 C :   -0.056205
  13 C :   -0.003723
  14 C :   -0.015724
  15 C :   -0.005723
  16 C :   -0.014042
  17 C :   -0.280408
  18 C :   -0.018980
  19 C :   -0.004506
  20 C :   -0.015933
  21 C :   -0.005647
  22 C :   -0.045256
  23 H :   -0.074568
  24 H :   -0.007635
  25 H :   -0.023227
  26 H :   -0.009155
  27 H :    0.016090
  28 H :    0.019529
  29 H :    0.021675
  30 H :    0.012081
  31 H :    0.014562
  32 H :    0.021269
  33 H :   -0.011249
  34 H :    0.004304
  35 H :   -0.024502
  36 H :   -0.053646
  37 H :    0.000412
  38 H :    0.024299
  39 H :    0.015505
  40 H :    0.012046
  41 H :    0.019298
  42 H :    0.022243
  43 H :    0.013898
  44 H :    0.013740
  45 H :   -0.008824
  46 H :   -0.043230
  47 H :    0.003949
  48 H :   -0.004297
  49 H :    0.014169
  50 H :    0.023583
  51 H :    0.019242
  52 H :    0.012119
  53 H :    0.015274
  54 H :    0.023822
  55 H :   -0.046341
  56 H :    0.017415
  57 C :   -0.236207
  58 C :    0.046289
  59 C :    0.017617
  60 C :    0.022103
  61 C :    0.025501
  62 C :    0.036172
  63 H :    0.008671
  64 H :    0.000363
  65 H :    0.003796
  66 H :   -0.040547
  67 H :    0.000446

  Mayer bond orders larger than 0.100000
B(  0-Ru,  1-Cl) :   1.7572 B(  0-Ru,  2-Cl) :   1.7072 B(  0-Ru,  3-P ) :  -0.6318
B(  0-Ru,  4-C ) :   1.5734 B(  0-Ru,  5-C ) :   0.2587 B(  0-Ru, 11-C ) :   0.2358
B(  0-Ru, 22-C ) :   0.2422 B(  0-Ru, 55-H ) :  -0.1024 B(  0-Ru, 57-C ) :  -0.1438
B(  0-Ru, 62-C ) :   0.1060 B(  1-Cl,  3-P ) :  -0.8374 B(  1-Cl,  4-C ) :  -0.1074
B(  1-Cl, 36-H ) :   0.1504 B(  1-Cl, 55-H ) :  -0.1364 B(  1-Cl, 57-C ) :  -0.2222
B(  2-Cl,  3-P ) :  -0.6600 B(  2-Cl,  4-C ) :  -0.2963 B(  3-P ,  4-C ) :  -0.1944
B(  3-P ,  5-C ) :   0.7239 B(  3-P ,  6-C ) :   0.3046 B(  3-P ,  8-C ) :  -0.1044
B(  3-P , 10-C ) :  -0.2711 B(  3-P , 11-C ) :   0.7670 B(  3-P , 12-C ) :   0.5339
B(  3-P , 17-C ) :   0.7028 B(  3-P , 18-C ) :   0.1770 B(  3-P , 21-C ) :  -0.1098
B(  3-P , 22-C ) :   0.1125 B(  3-P , 24-H ) :   0.2321 B(  3-P , 35-H ) :  -0.2470
B(  3-P , 36-H ) :  -0.1233 B(  4-C , 23-H ) :   0.9140 B(  4-C , 57-C ) :  -0.1684
B(  4-C , 58-C ) :  -0.5656 B(  4-C , 59-C ) :  -0.1484 B(  4-C , 60-C ) :   0.1049
B(  4-C , 61-C ) :  -0.2624 B(  4-C , 62-C ) :   0.2834 B(  5-C ,  6-C ) :   1.2934
B(  5-C ,  7-C ) :   0.3016 B(  5-C ,  8-C ) :   0.1275 B(  5-C ,  9-C ) :   0.2923
B(  5-C , 10-C ) :   1.0885 B(  5-C , 11-C ) :   0.1027 B(  5-C , 17-C ) :   0.1150
B(  5-C , 24-H ) :   0.6223 B(  5-C , 33-H ) :  -0.1172 B(  6-C ,  7-C ) :   0.8761
B(  6-C ,  8-C ) :   0.1192 B(  6-C ,  9-C ) :   0.1417 B(  6-C , 17-C ) :   0.1938
B(  6-C , 24-H ) :  -0.2083 B(  6-C , 25-H ) :   0.9277 B(  6-C , 26-H ) :   0.8535
B(  7-C ,  8-C ) :   0.9873 B(  7-C , 25-H ) :  -0.1339 B(  7-C , 27-H ) :   1.0173
B(  7-C , 28-H ) :   0.9885 B(  8-C ,  9-C ) :   1.0116 B(  8-C , 29-H ) :   1.0081
B(  8-C , 30-H ) :   1.0053 B(  9-C , 10-C ) :   0.6798 B(  9-C , 31-H ) :   0.9661
B(  9-C , 32-H ) :   0.9993 B(  9-C , 33-H ) :   0.2698 B(  9-C , 34-H ) :  -0.1933
B( 10-C , 24-H ) :  -0.2289 B( 10-C , 32-H ) :  -0.1316 B( 10-C , 33-H ) :   0.9306
B( 10-C , 34-H ) :   1.0562 B( 11-C , 12-C ) :   0.6693 B( 11-C , 13-C ) :   0.3544
B( 11-C , 15-C ) :   0.3087 B( 11-C , 16-C ) :   1.2736 B( 11-C , 17-C ) :   0.2479
B( 11-C , 22-C ) :   0.1045 B( 11-C , 35-H ) :   0.6921 B( 11-C , 37-H ) :  -0.1037
B( 11-C , 45-H ) :  -0.1070 B( 12-C , 13-C ) :   0.8994 B( 12-C , 14-C ) :   0.1196
B( 12-C , 35-H ) :  -0.1659 B( 12-C , 36-H ) :   0.9124 B( 12-C , 37-H ) :   1.0056
B( 13-C , 14-C ) :   1.0125 B( 13-C , 15-C ) :   0.1023 B( 13-C , 16-C ) :   0.1015
B( 13-C , 37-H ) :  -0.1079 B( 13-C , 38-H ) :   0.9959 B( 13-C , 39-H ) :   0.9717
B( 14-C , 15-C ) :   1.0077 B( 14-C , 40-H ) :   1.0091 B( 14-C , 41-H ) :   1.0136
B( 15-C , 16-C ) :   0.7986 B( 15-C , 42-H ) :   0.9555 B( 15-C , 43-H ) :   0.9844
B( 15-C , 44-H ) :  -0.1536 B( 15-C , 45-H ) :   0.2779 B( 16-C , 17-C ) :   0.1250
B( 16-C , 35-H ) :  -0.2451 B( 16-C , 44-H ) :   1.0463 B( 16-C , 45-H ) :   0.7839
B( 17-C , 18-C ) :   0.9258 B( 17-C , 19-C ) :   0.2631 B( 17-C , 21-C ) :   0.2330
B( 17-C , 22-C ) :   1.0449 B( 17-C , 46-H ) :   0.8366 B( 17-C , 47-H ) :  -0.1144
B( 18-C , 19-C ) :   0.8221 B( 18-C , 20-C ) :   0.1980 B( 18-C , 46-H ) :  -0.1476
B( 18-C , 47-H ) :   1.0528 B( 18-C , 48-H ) :   0.9025 B( 18-C , 50-H ) :  -0.1021
B( 19-C , 20-C ) :   1.0022 B( 19-C , 47-H ) :  -0.1544 B( 19-C , 48-H ) :   0.2116
B( 19-C , 49-H ) :   0.9780 B( 19-C , 50-H ) :   0.9855 B( 20-C , 21-C ) :   0.9650
B( 20-C , 22-C ) :   0.1769 B( 20-C , 51-H ) :   1.0183 B( 20-C , 52-H ) :   0.9972
B( 21-C , 22-C ) :   1.0858 B( 21-C , 53-H ) :   0.9975 B( 21-C , 54-H ) :   0.9852
B( 22-C , 46-H ) :  -0.2363 B( 22-C , 55-H ) :   0.8082 B( 22-C , 56-H ) :   1.0628
B( 57-C , 58-C ) :   1.3367 B( 57-C , 60-C ) :  -0.1161 B( 57-C , 61-C ) :   0.1011
B( 57-C , 62-C ) :   0.3494 B( 57-C , 63-H ) :  -0.1231 B( 57-C , 66-H ) :  -0.1872
B( 58-C , 59-C ) :   1.1843 B( 58-C , 62-C ) :  -0.2475 B( 58-C , 63-H ) :   1.2730
B( 59-C , 60-C ) :   1.1451 B( 59-C , 63-H ) :  -0.1515 B( 59-C , 64-H ) :   1.1230
B( 59-C , 67-H ) :  -0.1119 B( 60-C , 61-C ) :   1.1050 B( 60-C , 64-H ) :  -0.1155
B( 60-C , 65-H ) :  -0.1136 B( 60-C , 67-H ) :   1.1102 B( 61-C , 62-C ) :   1.3134
B( 61-C , 65-H ) :   1.1256 B( 61-C , 67-H ) :  -0.1102 B( 62-C , 66-H ) :   1.1387

MP2 TOTAL ENERGY:    -2331.993309967 Eh
Dispersion correction           -0.092098648
FINAL SINGLE POINT ENERGY     -2332.085408615790

DIPOLE MOMENT
-------------
                                X             Y             Z
Electronic contribution:     94.64250     -73.75786     -66.21014
Nuclear contribution   :    -95.45400      75.19378      67.48059
                        -----------------------------------------
Total Dipole Moment    :     -0.81150       1.43592       1.27045
                        -----------------------------------------
Magnitude (a.u.)       :      2.08193
Magnitude (Debye)      :      5.29185

Rotational constants in cm-1:     0.004948     0.003136     0.003087
Rotational constants in MHz :   148.341837    94.004802    92.554473

                             ****ORCA TERMINATED NORMALLY****
TOTAL RUN TIME: 0 days 0 hours 19 minutes 54 seconds 261 msec
