                         Program Version 4.2.0 -  RELEASE  -
|  1> #
|  2> # MOR11_ed11 ri-B2PLYP-D3BJ/Def2-TZVPPD
|  3> #
|  4> ! rijk ri-b2plyp d3bj def2-tzvppd def2/jk def2-tzvppd/c grid4 nofinalgrid
|  5>
|  6> *xyz 0 1
|  7> C       -0.215143    2.474912    0.000943
|  8> C        0.405007    3.719049    0.001069
|  9> C        1.797844    3.776033    0.000678
| 10> C        2.518886    2.587780    0.000166
| 11> H       -1.296303    2.357179    0.001183
| 12> H       -0.198474    4.620568    0.001502
| 13> H        2.316345    4.729851    0.000789
| 14> H        3.602578    2.611029   -0.000041
| 15> N        0.477795    1.324684    0.000439
| 16> C        1.835277    1.367244    0.000057
| 17> C        2.509992    0.059887   -0.000357
| 18> N        1.694840   -1.036421    0.000876
| 19> C        2.257001   -2.260308    0.000535
| 20> C        4.472096   -1.347919   -0.002398
| 21> C        3.629983   -2.459360   -0.001050
| 22> H        1.562821   -3.092687    0.001515
| 23> H        4.023772   -3.470102   -0.001337
| 24> C        3.900751   -0.081941   -0.002040
| 25> H        4.532932    0.798314   -0.003223
| 26> H        5.551118   -1.464051   -0.003853
| 27> Pd      -0.336917   -0.654572    0.001071
| 28> C       -0.858975   -2.626404    0.002691
| 29> H       -0.413078   -3.060930    0.907026
| 30> H       -0.415091   -3.062278   -0.901950
| 31> H       -1.933716   -2.807010    0.004117
| 32> I       -2.840745   -0.024929   -0.001244
| 33> *
| 34>
| 35> %maxcore 5000
| 36>
| 37> %pal
| 38> nprocs = 24
| 39> end
| 40>
| 41>
| 42>                          ****END OF INPUT****

CARTESIAN COORDINATES (ANGSTROEM)
---------------------------------
  C     -0.215143    2.474912    0.000943
  C      0.405007    3.719049    0.001069
  C      1.797844    3.776033    0.000678
  C      2.518886    2.587780    0.000166
  H     -1.296303    2.357179    0.001183
  H     -0.198474    4.620568    0.001502
  H      2.316345    4.729851    0.000789
  H      3.602578    2.611029   -0.000041
  N      0.477795    1.324684    0.000439
  C      1.835277    1.367244    0.000057
  C      2.509992    0.059887   -0.000357
  N      1.694840   -1.036421    0.000876
  C      2.257001   -2.260308    0.000535
  C      4.472096   -1.347919   -0.002398
  C      3.629983   -2.459360   -0.001050
  H      1.562821   -3.092687    0.001515
  H      4.023772   -3.470102   -0.001337
  C      3.900751   -0.081941   -0.002040
  H      4.532932    0.798314   -0.003223
  H      5.551118   -1.464051   -0.003853
  Pd    -0.336917   -0.654572    0.001071
  C     -0.858975   -2.626404    0.002691
  H     -0.413078   -3.060930    0.907026
  H     -0.415091   -3.062278   -0.901950
  H     -1.933716   -2.807010    0.004117
  I     -2.840745   -0.024929   -0.001244

 Total Charge           Charge          ....    0
 Multiplicity           Mult            ....    1
 Number of Electrons    NEL             ....  134
 Basis Dimension        Dim             ....  783

ORBITAL ENERGIES
----------------

  NO   OCC          E(Eh)            E(eV)
   0   2.0000     -14.912795      -405.7978
   1   2.0000     -14.896249      -405.3475
   2   2.0000     -10.715509      -291.5838
   3   2.0000     -10.709067      -291.4085
   4   2.0000     -10.696477      -291.0659
   5   2.0000     -10.684270      -290.7338
   6   2.0000     -10.680944      -290.6433
   7   2.0000     -10.674245      -290.4610
   8   2.0000     -10.672389      -290.4105
   9   2.0000     -10.667524      -290.2781
  10   2.0000     -10.666509      -290.2505
  11   2.0000     -10.658635      -290.0362
  12   2.0000     -10.569172      -287.6018
  13   2.0000      -7.128055      -193.9642
  14   2.0000      -5.077771      -138.1732
  15   2.0000      -5.073301      -138.0515
  16   2.0000      -5.073014      -138.0437
  17   2.0000      -3.689646      -100.4004
  18   2.0000      -2.315773       -63.0154
  19   2.0000      -2.313813       -62.9621
  20   2.0000      -2.293261       -62.4028
  21   2.0000      -1.979951       -53.8772
  22   2.0000      -1.978177       -53.8289
  23   2.0000      -1.978010       -53.8244
  24   2.0000      -1.973721       -53.7077
  25   2.0000      -1.973694       -53.7069
  26   2.0000      -1.138468       -30.9793
  27   2.0000      -1.108749       -30.1706
  28   2.0000      -0.970825       -26.4175
  29   2.0000      -0.959158       -26.1000
  30   2.0000      -0.954167       -25.9642
  31   2.0000      -0.893809       -24.3218
  32   2.0000      -0.797973       -21.7140
  33   2.0000      -0.787391       -21.4260
  34   2.0000      -0.751802       -20.4576
  35   2.0000      -0.742800       -20.2126
  36   2.0000      -0.735629       -20.0175
  37   2.0000      -0.691012       -18.8034
  38   2.0000      -0.664118       -18.0716
  39   2.0000      -0.621812       -16.9204
  40   2.0000      -0.619896       -16.8682
  41   2.0000      -0.598906       -16.2971
  42   2.0000      -0.580769       -15.8035
  43   2.0000      -0.556545       -15.1444
  44   2.0000      -0.543107       -14.7787
  45   2.0000      -0.535085       -14.5604
  46   2.0000      -0.533450       -14.5159
  47   2.0000      -0.522475       -14.2173
  48   2.0000      -0.492172       -13.3927
  49   2.0000      -0.482520       -13.1300
  50   2.0000      -0.469075       -12.7642
  51   2.0000      -0.442995       -12.0545
  52   2.0000      -0.439506       -11.9596
  53   2.0000      -0.430949       -11.7267
  54   2.0000      -0.425676       -11.5832
  55   2.0000      -0.391876       -10.6635
  56   2.0000      -0.376384       -10.2419
  57   2.0000      -0.371272       -10.1028
  58   2.0000      -0.338713        -9.2168
  59   2.0000      -0.323053        -8.7907
  60   2.0000      -0.315939        -8.5971
  61   2.0000      -0.311087        -8.4651
  62   2.0000      -0.304878        -8.2962
  63   2.0000      -0.294879        -8.0241
  64   2.0000      -0.264734        -7.2038
  65   2.0000      -0.234943        -6.3931
  66   2.0000      -0.233251        -6.3471
  67   0.0000      -0.056983        -1.5506
  68   0.0000      -0.022092        -0.6011
  69   0.0000      -0.005129        -0.1396
  70   0.0000       0.006236         0.1697
  71   0.0000       0.020438         0.5561

MULLIKEN ATOMIC CHARGES
-----------------------
   0 C :    0.201616
   1 C :   -0.180680
   2 C :   -0.003748
   3 C :   -0.005281
   4 H :   -0.134568
   5 H :    0.006097
   6 H :    0.012407
   7 H :   -0.079326
   8 N :    0.070167
   9 C :    0.613137
  10 C :   -0.070523
  11 N :    0.201079
  12 C :    0.005524
  13 C :    0.019758
  14 C :   -0.126046
  15 H :    0.002281
  16 H :   -0.005075
  17 C :   -0.016003
  18 H :   -0.075975
  19 H :    0.017109
  20 Pd:    0.000621
  21 C :   -0.222006
  22 H :    0.054963
  23 H :    0.055382
  24 H :    0.100455
  25 I :   -0.441364
Sum of atomic charges:    0.0000000

LOEWDIN ATOMIC CHARGES
----------------------
   0 C :   -0.043836
   1 C :    0.060990
   2 C :    0.052993
   3 C :    0.078643
   4 H :   -0.090304
   5 H :    0.007645
   6 H :    0.011409
   7 H :   -0.001294
   8 N :   -0.004119
   9 C :   -0.169763
  10 C :   -0.154203
  11 N :    0.010465
  12 C :   -0.003691
  13 C :    0.056608
  14 C :    0.060564
  15 H :   -0.011172
  16 H :    0.007880
  17 C :    0.080845
  18 H :    0.000282
  19 H :    0.012604
  20 Pd:    0.427658
  21 C :   -0.072598
  22 H :   -0.113399
  23 H :   -0.113364
  24 H :   -0.168393
  25 I :    0.077552

  Mayer bond orders larger than 0.100000
B(  0-C ,  1-C ) :   1.2008 B(  0-C ,  3-C ) :  -0.1071 B(  0-C ,  4-H ) :   1.0128
B(  0-C ,  8-N ) :   1.4906 B(  0-C , 20-Pd) :  -0.1712 B(  0-C , 25-I ) :  -0.1189
B(  1-C ,  2-C ) :   1.1450 B(  1-C ,  5-H ) :   1.1019 B(  1-C ,  8-N ) :  -0.1159
B(  1-C ,  9-C ) :  -0.1065 B(  1-C , 20-Pd) :   0.1379 B(  2-C ,  3-C ) :   0.9256
B(  2-C ,  6-H ) :   1.0940 B(  2-C ,  7-H ) :  -0.1544 B(  2-C ,  8-N ) :   0.1354
B(  3-C ,  7-H ) :   1.2585 B(  3-C ,  8-N ) :  -0.2325 B(  3-C ,  9-C ) :   1.0467
B(  3-C , 10-C ) :  -0.4337 B(  3-C , 20-Pd) :   0.2098 B(  4-H ,  8-N ) :  -0.1150
B(  4-H , 25-I ) :   0.2695 B(  7-H ,  9-C ) :  -0.1530 B(  8-N ,  9-C ) :   1.2181
B(  8-N , 10-C ) :   0.4027 B(  8-N , 20-Pd) :   0.1897 B(  8-N , 25-I ) :  -0.1029
B(  9-C , 10-C ) :   1.0805 B(  9-C , 17-C ) :  -0.5469 B(  9-C , 20-Pd) :  -0.1529
B( 10-C , 11-N ) :   1.6110 B( 10-C , 17-C ) :   1.1482 B( 10-C , 18-H ) :  -0.1503
B( 11-N , 12-C ) :   1.6739 B( 11-N , 13-C ) :   0.1519 B( 11-N , 14-C ) :  -0.1181
B( 11-N , 17-C ) :  -0.2385 B( 11-N , 20-Pd) :   0.2148 B( 11-N , 21-C ) :  -0.1025
B( 12-C , 14-C ) :   1.1591 B( 12-C , 15-H ) :   1.1030 B( 12-C , 17-C ) :  -0.1094
B( 13-C , 14-C ) :   1.1409 B( 13-C , 17-C ) :   0.9240 B( 13-C , 18-H ) :  -0.1673
B( 13-C , 19-H ) :   1.0952 B( 14-C , 15-H ) :  -0.1142 B( 14-C , 16-H ) :   1.1038
B( 14-C , 19-H ) :  -0.1043 B( 14-C , 20-Pd) :   0.1025 B( 17-C , 18-H ) :   1.2628
B( 17-C , 20-Pd) :   0.1947 B( 20-Pd, 21-C ) :   0.6743 B( 20-Pd, 25-I ) :   0.9192
B( 21-C , 22-H ) :   1.0284 B( 21-C , 23-H ) :   1.0285 B( 21-C , 24-H ) :   1.0077

MP2 TOTAL ENERGY:     -960.497023909 Eh
Dispersion correction           -0.033668280
FINAL SINGLE POINT ENERGY      -960.530692189358

DIPOLE MOMENT
-------------
                                X             Y             Z
Electronic contribution:   -214.16430     -39.78883      -0.01929
Nuclear contribution   :    218.94043      41.00073       0.01934
                        -----------------------------------------
Total Dipole Moment    :      4.77613       1.21189       0.00005
                        -----------------------------------------
Magnitude (a.u.)       :      4.92748
Magnitude (Debye)      :     12.52466

Rotational constants in cm-1:     0.017794     0.008244     0.005640
Rotational constants in MHz :   533.441148   247.152748   169.085365

                             ****ORCA TERMINATED NORMALLY****
TOTAL RUN TIME: 0 days 0 hours 1 minutes 59 seconds 828 msec
