                         Program Version 4.2.0 -  RELEASE  -
|  1> #
|  2> # MOR16_ed33 ri-B2PLYP-D3BJ/Def2-TZVPPD
|  3> #
|  4> ! rijk ri-b2plyp d3bj def2-tzvppd def2/jk def2-tzvppd/c grid4 nofinalgrid
|  5>
|  6> *xyz 0 1
|  7> Ru      -0.022566   -0.070875   -0.379144
|  8> P        0.186586   -1.836138    1.061273
|  9> P       -0.107348    1.786969    0.983128
| 10> P       -2.337688   -0.031549   -0.574608
| 11> P        2.258415    0.217420   -0.654771
| 12> H       -1.011320    0.631023   -2.964588
| 13> C       -0.084126    0.244754   -2.536818
| 14> C        0.002235   -1.177677   -2.238071
| 15> H       -0.861138   -1.806799   -2.436001
| 16> C       -1.265405   -2.900768    1.510519
| 17> C        0.882199   -1.676365    2.777543
| 18> C        1.273276   -3.202818    0.434593
| 19> C       -0.218657    3.482246    0.220382
| 20> C       -1.474202    1.984957    2.229068
| 21> C        1.261931    2.159069    2.186793
| 22> C       -3.132442   -1.089929   -1.868209
| 23> C       -3.503325   -0.454941    0.806619
| 24> C       -3.065826    1.589188   -1.096490
| 25> C        3.115513   -0.738567   -1.988082
| 26> C        3.484163   -0.113039    0.695104
| 27> C        2.817918    1.905477   -1.167131
| 28> H        0.775994    0.734504   -2.997508
| 29> H        0.923698   -1.705224   -2.468332
| 30> H       -1.797994   -3.196368    0.601740
| 31> H       -1.951513   -2.343187    2.152343
| 32> H       -0.940552   -3.802999    2.042563
| 33> H        0.220858   -1.033459    3.367392
| 34> H        1.866404   -1.203417    2.738274
| 35> H        0.973380   -2.648584    3.278375
| 36> H        0.869924   -3.550933   -0.520488
| 37> H        1.326184   -4.042772    1.138076
| 38> H        2.284288   -2.829356    0.252702
| 39> H       -0.255493    4.275719    0.977504
| 40> H       -1.111307    3.540133   -0.406666
| 41> H        0.646533    3.642441   -0.427500
| 42> H       -1.340744    2.904812    2.810047
| 43> H       -1.464232    1.128616    2.910406
| 44> H       -2.450699    2.022913    1.741739
| 45> H        1.024646    3.051958    2.776564
| 46> H        2.206281    2.332826    1.666415
| 47> H        1.391528    1.309503    2.862930
| 48> H       -4.214574   -0.920776   -1.864995
| 49> H       -2.933677   -2.144929   -1.660324
| 50> H       -2.737237   -0.849967   -2.858203
| 51> H       -4.496496   -0.037297    0.606865
| 52> H       -3.139236   -0.075571    1.761748
| 53> H       -3.591401   -1.541056    0.877459
| 54> H       -4.128475    1.484093   -1.343350
| 55> H       -2.520683    1.955160   -1.969951
| 56> H       -2.964031    2.325987   -0.296631
| 57> H        4.171126   -0.449128   -2.023284
| 58> H        2.657332   -0.533147   -2.958558
| 59> H        3.043678   -1.811163   -1.790971
| 60> H        4.490887    0.184953    0.381316
| 61> H        3.492626   -1.181661    0.925550
| 62> H        3.218142    0.429172    1.603169
| 63> H        3.886252    1.913189   -1.411457
| 64> H        2.634640    2.627880   -0.369051
| 65> H        2.240286    2.211368   -2.043241
| 66> *
| 67>
| 68> %maxcore 5000
| 69>
| 70> %pal
| 71> nprocs = 24
| 72> end
| 73>
| 74>
| 75>                          ****END OF INPUT****

CARTESIAN COORDINATES (ANGSTROEM)
---------------------------------
  Ru    -0.022566   -0.070875   -0.379144
  P      0.186586   -1.836138    1.061273
  P     -0.107348    1.786969    0.983128
  P     -2.337688   -0.031549   -0.574608
  P      2.258415    0.217420   -0.654771
  H     -1.011320    0.631023   -2.964588
  C     -0.084126    0.244754   -2.536818
  C      0.002235   -1.177677   -2.238071
  H     -0.861138   -1.806799   -2.436001
  C     -1.265405   -2.900768    1.510519
  C      0.882199   -1.676365    2.777543
  C      1.273276   -3.202818    0.434593
  C     -0.218657    3.482246    0.220382
  C     -1.474202    1.984957    2.229068
  C      1.261931    2.159069    2.186793
  C     -3.132442   -1.089929   -1.868209
  C     -3.503325   -0.454941    0.806619
  C     -3.065826    1.589188   -1.096490
  C      3.115513   -0.738567   -1.988082
  C      3.484163   -0.113039    0.695104
  C      2.817918    1.905477   -1.167131
  H      0.775994    0.734504   -2.997508
  H      0.923698   -1.705224   -2.468332
  H     -1.797994   -3.196368    0.601740
  H     -1.951513   -2.343187    2.152343
  H     -0.940552   -3.802999    2.042563
  H      0.220858   -1.033459    3.367392
  H      1.866404   -1.203417    2.738274
  H      0.973380   -2.648584    3.278375
  H      0.869924   -3.550933   -0.520488
  H      1.326184   -4.042772    1.138076
  H      2.284288   -2.829356    0.252702
  H     -0.255493    4.275719    0.977504
  H     -1.111307    3.540133   -0.406666
  H      0.646533    3.642441   -0.427500
  H     -1.340744    2.904812    2.810047
  H     -1.464232    1.128616    2.910406
  H     -2.450699    2.022913    1.741739
  H      1.024646    3.051958    2.776564
  H      2.206281    2.332826    1.666415
  H      1.391528    1.309503    2.862930
  H     -4.214574   -0.920776   -1.864995
  H     -2.933677   -2.144929   -1.660324
  H     -2.737237   -0.849967   -2.858203
  H     -4.496496   -0.037297    0.606865
  H     -3.139236   -0.075571    1.761748
  H     -3.591401   -1.541056    0.877459
  H     -4.128475    1.484093   -1.343350
  H     -2.520683    1.955160   -1.969951
  H     -2.964031    2.325987   -0.296631
  H      4.171126   -0.449128   -2.023284
  H      2.657332   -0.533147   -2.958558
  H      3.043678   -1.811163   -1.790971
  H      4.490887    0.184953    0.381316
  H      3.492626   -1.181661    0.925550
  H      3.218142    0.429172    1.603169
  H      3.886252    1.913189   -1.411457
  H      2.634640    2.627880   -0.369051
  H      2.240286    2.211368   -2.043241

 Total Charge           Charge          ....    0
 Multiplicity           Mult            ....    1
 Number of Electrons    NEL             ....  200
 Basis Dimension        Dim             .... 1446

ORBITAL ENERGIES
----------------

  NO   OCC          E(Eh)            E(eV)
   0   2.0000     -78.269992     -2129.8347
   1   2.0000     -78.268304     -2129.7888
   2   2.0000     -78.266129     -2129.7296
   3   2.0000     -78.263002     -2129.6445
   4   2.0000     -10.604451      -288.5618
   5   2.0000     -10.601772      -288.4889
   6   2.0000     -10.601485      -288.4811
   7   2.0000     -10.600954      -288.4666
   8   2.0000     -10.600953      -288.4666
   9   2.0000     -10.599580      -288.4292
  10   2.0000     -10.598566      -288.4016
  11   2.0000     -10.598204      -288.3918
  12   2.0000     -10.598026      -288.3870
  13   2.0000     -10.597835      -288.3818
  14   2.0000     -10.594448      -288.2896
  15   2.0000     -10.594273      -288.2848
  16   2.0000     -10.559433      -287.3368
  17   2.0000     -10.552264      -287.1417
  18   2.0000      -6.935478      -188.7240
  19   2.0000      -6.933856      -188.6798
  20   2.0000      -6.930335      -188.5840
  21   2.0000      -6.927243      -188.4999
  22   2.0000      -4.987108      -135.7061
  23   2.0000      -4.986908      -135.7007
  24   2.0000      -4.985456      -135.6612
  25   2.0000      -4.985274      -135.6562
  26   2.0000      -4.984066      -135.6233
  27   2.0000      -4.982414      -135.5784
  28   2.0000      -4.982097      -135.5697
  29   2.0000      -4.981741      -135.5601
  30   2.0000      -4.978997      -135.4854
  31   2.0000      -4.978918      -135.4833
  32   2.0000      -4.978750      -135.4787
  33   2.0000      -4.975964      -135.4029
  34   2.0000      -3.168359       -86.2154
  35   2.0000      -1.953447       -53.1560
  36   2.0000      -1.948221       -53.0138
  37   2.0000      -1.942751       -52.8649
  38   2.0000      -0.877603       -23.8808
  39   2.0000      -0.871122       -23.7044
  40   2.0000      -0.864176       -23.5154
  41   2.0000      -0.862124       -23.4596
  42   2.0000      -0.809507       -22.0278
  43   2.0000      -0.794400       -21.6167
  44   2.0000      -0.792300       -21.5596
  45   2.0000      -0.791108       -21.5271
  46   2.0000      -0.784701       -21.3528
  47   2.0000      -0.782789       -21.3008
  48   2.0000      -0.782321       -21.2880
  49   2.0000      -0.781617       -21.2689
  50   2.0000      -0.779937       -21.2232
  51   2.0000      -0.629236       -17.1224
  52   2.0000      -0.626950       -17.0602
  53   2.0000      -0.611075       -16.6282
  54   2.0000      -0.607207       -16.5229
  55   2.0000      -0.605264       -16.4701
  56   2.0000      -0.526679       -14.3317
  57   2.0000      -0.523851       -14.2547
  58   2.0000      -0.515707       -14.0331
  59   2.0000      -0.509391       -13.8612
  60   2.0000      -0.503070       -13.6892
  61   2.0000      -0.499735       -13.5985
  62   2.0000      -0.496273       -13.5043
  63   2.0000      -0.493111       -13.4182
  64   2.0000      -0.487830       -13.2745
  65   2.0000      -0.484097       -13.1729
  66   2.0000      -0.479766       -13.0551
  67   2.0000      -0.475800       -12.9472
  68   2.0000      -0.473801       -12.8928
  69   2.0000      -0.462911       -12.5964
  70   2.0000      -0.459376       -12.5002
  71   2.0000      -0.457572       -12.4512
  72   2.0000      -0.454060       -12.3556
  73   2.0000      -0.451711       -12.2917
  74   2.0000      -0.450361       -12.2549
  75   2.0000      -0.448187       -12.1958
  76   2.0000      -0.445338       -12.1183
  77   2.0000      -0.443654       -12.0724
  78   2.0000      -0.442233       -12.0338
  79   2.0000      -0.439808       -11.9678
  80   2.0000      -0.437256       -11.8983
  81   2.0000      -0.433564       -11.7979
  82   2.0000      -0.392711       -10.6862
  83   2.0000      -0.389859       -10.6086
  84   2.0000      -0.383799       -10.4437
  85   2.0000      -0.380330       -10.3493
  86   2.0000      -0.376459       -10.2440
  87   2.0000      -0.373950       -10.1757
  88   2.0000      -0.369878       -10.0649
  89   2.0000      -0.368443       -10.0258
  90   2.0000      -0.365604        -9.9486
  91   2.0000      -0.364007        -9.9051
  92   2.0000      -0.340453        -9.2642
  93   2.0000      -0.334014        -9.0890
  94   2.0000      -0.289558        -7.8793
  95   2.0000      -0.277360        -7.5473
  96   2.0000      -0.241371        -6.5680
  97   2.0000      -0.235821        -6.4170
  98   2.0000      -0.210496        -5.7279
  99   2.0000      -0.181053        -4.9267
 100   0.0000       0.020768         0.5651
 101   0.0000       0.033649         0.9156
 102   0.0000       0.036442         0.9916
 103   0.0000       0.039427         1.0729
 104   0.0000       0.051888         1.4120

MULLIKEN ATOMIC CHARGES
-----------------------
   0 Ru:   -1.166768
   1 P :    1.804963
   2 P :    1.446709
   3 P :    1.749986
   4 P :    1.457872
   5 H :    0.090796
   6 C :   -0.839394
   7 C :    0.051369
   8 H :    0.064928
   9 C :   -0.753969
  10 C :   -0.736518
  11 C :   -0.804424
  12 C :   -0.928866
  13 C :   -0.648667
  14 C :   -0.642703
  15 C :   -0.798697
  16 C :   -0.695542
  17 C :   -0.866870
  18 C :   -0.834272
  19 C :   -0.700532
  20 C :   -0.777365
  21 H :    0.089450
  22 H :    0.104861
  23 H :    0.083262
  24 H :    0.093065
  25 H :    0.149758
  26 H :    0.063419
  27 H :    0.096481
  28 H :    0.148826
  29 H :    0.080728
  30 H :    0.146162
  31 H :    0.089635
  32 H :    0.138113
  33 H :    0.108166
  34 H :    0.121069
  35 H :    0.133827
  36 H :    0.085410
  37 H :    0.133473
  38 H :    0.137754
  39 H :    0.123161
  40 H :    0.092170
  41 H :    0.174922
  42 H :    0.075330
  43 H :    0.151543
  44 H :    0.173254
  45 H :    0.081218
  46 H :    0.129582
  47 H :    0.142824
  48 H :    0.097544
  49 H :    0.134428
  50 H :    0.169043
  51 H :    0.158993
  52 H :    0.097043
  53 H :    0.152932
  54 H :    0.121450
  55 H :    0.087246
  56 H :    0.145408
  57 H :    0.121904
  58 H :    0.094508
Sum of atomic charges:    0.0000000

LOEWDIN ATOMIC CHARGES
----------------------
   0 Ru:    0.070547
   1 P :    0.802628
   2 P :    0.790481
   3 P :    0.847384
   4 P :    0.842782
   5 H :   -0.099284
   6 C :   -0.150976
   7 C :   -0.161628
   8 H :   -0.100797
   9 C :   -0.038550
  10 C :   -0.032283
  11 C :   -0.027838
  12 C :   -0.012475
  13 C :   -0.038327
  14 C :   -0.033630
  15 C :   -0.024424
  16 C :   -0.019469
  17 C :   -0.022604
  18 C :   -0.018103
  19 C :   -0.016750
  20 C :   -0.017489
  21 H :   -0.098400
  22 H :   -0.102318
  23 H :   -0.061252
  24 H :   -0.071917
  25 H :   -0.054859
  26 H :   -0.066168
  27 H :   -0.083049
  28 H :   -0.054077
  29 H :   -0.054982
  30 H :   -0.055210
  31 H :   -0.088630
  32 H :   -0.053146
  33 H :   -0.075782
  34 H :   -0.074420
  35 H :   -0.053815
  36 H :   -0.061970
  37 H :   -0.086823
  38 H :   -0.053120
  39 H :   -0.086710
  40 H :   -0.067607
  41 H :   -0.049794
  42 H :   -0.056672
  43 H :   -0.057986
  44 H :   -0.048095
  45 H :   -0.081508
  46 H :   -0.072519
  47 H :   -0.051928
  48 H :   -0.060244
  49 H :   -0.086039
  50 H :   -0.050811
  51 H :   -0.056862
  52 H :   -0.060392
  53 H :   -0.048324
  54 H :   -0.072912
  55 H :   -0.084883
  56 H :   -0.050930
  57 H :   -0.087381
  58 H :   -0.057663

  Mayer bond orders larger than 0.100000
B(  0-Ru,  1-P ) :   0.4581 B(  0-Ru,  2-P ) :   0.4604 B(  0-Ru,  3-P ) :   0.5368
B(  0-Ru,  4-P ) :   0.4918 B(  0-Ru,  6-C ) :   1.0684 B(  0-Ru,  7-C ) :   0.7717
B(  0-Ru, 11-C ) :   0.1842 B(  0-Ru, 12-C ) :   0.1062 B(  0-Ru, 20-C ) :   0.1105
B(  0-Ru, 21-H ) :   0.1192 B(  1-P ,  2-P ) :   0.4052 B(  1-P ,  4-P ) :   0.1769
B(  1-P ,  9-C ) :   0.4285 B(  1-P , 10-C ) :   0.4911 B(  1-P , 11-C ) :   0.5834
B(  2-P ,  3-P ) :   0.1187 B(  2-P ,  4-P ) :   0.1554 B(  2-P ,  7-C ) :   0.1067
B(  2-P , 12-C ) :   0.5545 B(  2-P , 13-C ) :   0.2379 B(  2-P , 14-C ) :   0.2671
B(  3-P ,  4-P ) :   0.2383 B(  3-P ,  6-C ) :   0.1747 B(  3-P ,  7-C ) :  -0.3039
B(  3-P , 15-C ) :   0.3394 B(  3-P , 16-C ) :   0.4245 B(  3-P , 17-C ) :   0.4252
B(  4-P ,  6-C ) :   0.1633 B(  4-P ,  7-C ) :  -0.2567 B(  4-P , 18-C ) :   0.4358
B(  4-P , 19-C ) :   0.4918 B(  4-P , 20-C ) :   0.3051 B(  5-H ,  6-C ) :   1.1065
B(  6-C ,  7-C ) :   0.7913 B(  6-C , 21-H ) :   1.0630 B(  7-C ,  8-H ) :   1.0840
B(  7-C , 22-H ) :   1.0695 B(  9-C , 10-C ) :   0.1378 B(  9-C , 11-C ) :   0.1645
B(  9-C , 23-H ) :   1.0454 B(  9-C , 24-H ) :   1.0303 B(  9-C , 25-H ) :   1.0179
B( 10-C , 11-C ) :   0.1310 B( 10-C , 26-H ) :   1.0353 B( 10-C , 27-H ) :   1.0327
B( 10-C , 28-H ) :   1.0458 B( 11-C , 29-H ) :   1.0507 B( 11-C , 30-H ) :   1.0483
B( 11-C , 31-H ) :   1.0081 B( 12-C , 13-C ) :   0.1236 B( 12-C , 14-C ) :   0.1307
B( 12-C , 32-H ) :   1.0601 B( 12-C , 33-H ) :   1.0532 B( 12-C , 34-H ) :   1.0671
B( 13-C , 14-C ) :   0.1928 B( 13-C , 35-H ) :   1.0526 B( 13-C , 36-H ) :   1.0365
B( 13-C , 37-H ) :   1.0124 B( 14-C , 38-H ) :   1.0364 B( 14-C , 39-H ) :   1.0051
B( 14-C , 40-H ) :   1.0409 B( 15-C , 16-C ) :   0.1429 B( 15-C , 17-C ) :   0.1897
B( 15-C , 41-H ) :   1.0088 B( 15-C , 42-H ) :   1.0689 B( 15-C , 43-H ) :   0.9985
B( 16-C , 17-C ) :   0.1108 B( 16-C , 44-H ) :   0.9998 B( 16-C , 45-H ) :   1.0882
B( 16-C , 46-H ) :   0.9897 B( 17-C , 47-H ) :   1.0581 B( 17-C , 48-H ) :   1.0321
B( 17-C , 49-H ) :   1.0191 B( 18-C , 19-C ) :   0.1067 B( 18-C , 20-C ) :   0.1545
B( 18-C , 50-H ) :   1.0032 B( 18-C , 51-H ) :   1.0112 B( 18-C , 52-H ) :   1.0696
B( 19-C , 20-C ) :   0.1035 B( 19-C , 53-H ) :   1.0209 B( 19-C , 54-H ) :   1.0167
B( 19-C , 55-H ) :   1.0664 B( 20-C , 56-H ) :   1.0409 B( 20-C , 57-H ) :   1.0172
B( 20-C , 58-H ) :   1.0505

MP2 TOTAL ENERGY:    -2017.192682002 Eh
Dispersion correction           -0.085675914
FINAL SINGLE POINT ENERGY     -2017.278357916011

DIPOLE MOMENT
-------------
                                X             Y             Z
Electronic contribution:     -1.79425      -5.11325     -26.74179
Nuclear contribution   :      1.82563       5.30534      27.72313
                        -----------------------------------------
Total Dipole Moment    :      0.03138       0.19209       0.98135
                        -----------------------------------------
Magnitude (a.u.)       :      1.00046
Magnitude (Debye)      :      2.54298

Rotational constants in cm-1:     0.009351     0.007693     0.006898
Rotational constants in MHz :   280.325632   230.636339   206.809498

                             ****ORCA TERMINATED NORMALLY****
TOTAL RUN TIME: 0 days 0 hours 6 minutes 31 seconds 811 msec
