                         Program Version 4.2.0 -  RELEASE  -
|  1> #
|  2> # MOR10_ed09 ri-B2PLYP-D3BJ/Def2-TZVPPD
|  3> #
|  4> ! rijk ri-b2plyp d3bj def2-tzvppd def2/jk def2-tzvppd/c grid4 nofinalgrid
|  5>
|  6> *xyz 0 1
|  7> C        0.808995    0.630455    2.540471
|  8> C        1.251846    1.095590    1.293526
|  9> C        1.383898    2.476779    1.093534
| 10> C        1.096273    3.369549    2.123624
| 11> C        0.674512    2.896605    3.366402
| 12> C        0.527691    1.524549    3.571013
| 13> P        1.574642   -0.069667   -0.082699
| 14> C        2.832960    0.843508   -1.058615
| 15> C        2.470614    1.376098   -2.300811
| 16> C        3.389175    2.120533   -3.040434
| 17> C        4.677141    2.329565   -2.547864
| 18> C        5.047172    1.790502   -1.313611
| 19> C        4.129605    1.051595   -0.570111
| 20> Rh      -0.002604   -0.796146   -1.344377
| 21> Cl       1.074079   -1.834200   -3.101706
| 22> P       -1.622228   -0.075877   -0.088018
| 23> C       -1.803842    1.702415    0.297126
| 24> C       -2.229632    2.223789    1.521581
| 25> C       -2.349352    3.604004    1.692487
| 26> C       -2.048907    4.471915    0.644369
| 27> C       -1.606201    3.958746   -0.577355
| 28> C       -1.475459    2.583893   -0.746478
| 29> C       -3.062543   -0.419252   -1.169366
| 30> C       -3.141320   -1.718422   -1.702099
| 31> C       -4.157899   -2.054399   -2.592475
| 32> C       -5.110047   -1.100127   -2.955969
| 33> C       -5.041177    0.189383   -2.426273
| 34> C       -4.021006    0.532927   -1.539475
| 35> C       -2.066176   -1.000166    1.430207
| 36> C       -1.181452   -1.986758    1.882501
| 37> C       -1.497950   -2.762866    2.997043
| 38> C       -2.708929   -2.565810    3.661246
| 39> C       -3.611118   -1.604929    3.197782
| 40> C       -3.296146   -0.830428    2.082866
| 41> C        2.526762   -1.412838    0.731905
| 42> C        3.276788   -1.210573    1.900876
| 43> C        4.004905   -2.259926    2.460546
| 44> C        3.996021   -3.518658    1.858231
| 45> C        3.258939   -3.724012    0.690924
| 46> C        2.525229   -2.679846    0.130400
| 47> H       -2.400862   -2.462118   -1.411221
| 48> H       -4.205196   -3.058543   -3.003745
| 49> H       -5.903513   -1.360959   -3.650464
| 50> H       -5.783053    0.932397   -2.706210
| 51> H       -3.967070    1.539632   -1.137031
| 52> H       -2.450107    1.557807    2.348608
| 53> H       -2.671735    3.999637    2.651651
| 54> H       -2.145762    5.545320    0.781176
| 55> H       -1.354424    4.630618   -1.393167
| 56> H       -1.106831    2.171328   -1.683412
| 57> H       -0.254747   -2.145782    1.334840
| 58> H       -0.803470   -3.525000    3.339550
| 59> H       -2.958943   -3.170852    4.528281
| 60> H       -4.564895   -1.467934    3.699990
| 61> H       -4.014311   -0.106909    1.706849
| 62> H        3.285372   -0.236670    2.380292
| 63> H        4.578140   -2.092663    3.368393
| 64> H        4.561493   -4.335782    2.297848
| 65> H        3.251715   -4.700268    0.214323
| 66> H        1.950377   -2.830532   -0.780423
| 67> H        1.471910    1.178524   -2.682000
| 68> H        3.101239    2.524675   -4.006836
| 69> H        5.396289    2.901586   -3.127755
| 70> H        6.053788    1.939891   -0.932858
| 71> H        4.425922    0.628717    0.384972
| 72> H        1.719088    2.850389    0.131432
| 73> H        1.199114    4.437105    1.952609
| 74> H        0.454504    3.594780    4.169138
| 75> H        0.193294    1.146402    4.533186
| 76> H        0.698101   -0.433995    2.712341
| 77> *
| 78>
| 79> %maxcore 5000
| 80>
| 81> %pal
| 82> nprocs = 24
| 83> end
| 84>
| 85>
| 86>                          ****END OF INPUT****

CARTESIAN COORDINATES (ANGSTROEM)
---------------------------------
  C      0.808995    0.630455    2.540471
  C      1.251846    1.095590    1.293526
  C      1.383898    2.476779    1.093534
  C      1.096273    3.369549    2.123624
  C      0.674512    2.896605    3.366402
  C      0.527691    1.524549    3.571013
  P      1.574642   -0.069667   -0.082699
  C      2.832960    0.843508   -1.058615
  C      2.470614    1.376098   -2.300811
  C      3.389175    2.120533   -3.040434
  C      4.677141    2.329565   -2.547864
  C      5.047172    1.790502   -1.313611
  C      4.129605    1.051595   -0.570111
  Rh    -0.002604   -0.796146   -1.344377
  Cl     1.074079   -1.834200   -3.101706
  P     -1.622228   -0.075877   -0.088018
  C     -1.803842    1.702415    0.297126
  C     -2.229632    2.223789    1.521581
  C     -2.349352    3.604004    1.692487
  C     -2.048907    4.471915    0.644369
  C     -1.606201    3.958746   -0.577355
  C     -1.475459    2.583893   -0.746478
  C     -3.062543   -0.419252   -1.169366
  C     -3.141320   -1.718422   -1.702099
  C     -4.157899   -2.054399   -2.592475
  C     -5.110047   -1.100127   -2.955969
  C     -5.041177    0.189383   -2.426273
  C     -4.021006    0.532927   -1.539475
  C     -2.066176   -1.000166    1.430207
  C     -1.181452   -1.986758    1.882501
  C     -1.497950   -2.762866    2.997043
  C     -2.708929   -2.565810    3.661246
  C     -3.611118   -1.604929    3.197782
  C     -3.296146   -0.830428    2.082866
  C      2.526762   -1.412838    0.731905
  C      3.276788   -1.210573    1.900876
  C      4.004905   -2.259926    2.460546
  C      3.996021   -3.518658    1.858231
  C      3.258939   -3.724012    0.690924
  C      2.525229   -2.679846    0.130400
  H     -2.400862   -2.462118   -1.411221
  H     -4.205196   -3.058543   -3.003745
  H     -5.903513   -1.360959   -3.650464
  H     -5.783053    0.932397   -2.706210
  H     -3.967070    1.539632   -1.137031
  H     -2.450107    1.557807    2.348608
  H     -2.671735    3.999637    2.651651
  H     -2.145762    5.545320    0.781176
  H     -1.354424    4.630618   -1.393167
  H     -1.106831    2.171328   -1.683412
  H     -0.254747   -2.145782    1.334840
  H     -0.803470   -3.525000    3.339550
  H     -2.958943   -3.170852    4.528281
  H     -4.564895   -1.467934    3.699990
  H     -4.014311   -0.106909    1.706849
  H      3.285372   -0.236670    2.380292
  H      4.578140   -2.092663    3.368393
  H      4.561493   -4.335782    2.297848
  H      3.251715   -4.700268    0.214323
  H      1.950377   -2.830532   -0.780423
  H      1.471910    1.178524   -2.682000
  H      3.101239    2.524675   -4.006836
  H      5.396289    2.901586   -3.127755
  H      6.053788    1.939891   -0.932858
  H      4.425922    0.628717    0.384972
  H      1.719088    2.850389    0.131432
  H      1.199114    4.437105    1.952609
  H      0.454504    3.594780    4.169138
  H      0.193294    1.146402    4.533186
  H      0.698101   -0.433995    2.712341

 Total Charge           Charge          ....    0
 Multiplicity           Mult            ....    1
 Number of Electrons    NEL             ....  310
 Basis Dimension        Dim             .... 2045

ORBITAL ENERGIES
----------------

  NO   OCC          E(Eh)            E(eV)
   0   2.0000    -102.804690     -2797.4578
   1   2.0000     -78.302475     -2130.7187
   2   2.0000     -78.296501     -2130.5561
   3   2.0000     -10.637144      -289.4514
   4   2.0000     -10.636154      -289.4245
   5   2.0000     -10.635957      -289.4191
   6   2.0000     -10.635777      -289.4142
   7   2.0000     -10.634299      -289.3740
   8   2.0000     -10.633148      -289.3427
   9   2.0000     -10.633080      -289.3408
  10   2.0000     -10.632924      -289.3366
  11   2.0000     -10.632744      -289.3317
  12   2.0000     -10.632519      -289.3256
  13   2.0000     -10.632177      -289.3162
  14   2.0000     -10.631213      -289.2900
  15   2.0000     -10.630766      -289.2779
  16   2.0000     -10.630596      -289.2732
  17   2.0000     -10.630343      -289.2663
  18   2.0000     -10.630029      -289.2578
  19   2.0000     -10.629374      -289.2400
  20   2.0000     -10.629361      -289.2396
  21   2.0000     -10.629322      -289.2386
  22   2.0000     -10.629051      -289.2312
  23   2.0000     -10.628783      -289.2239
  24   2.0000     -10.628063      -289.2043
  25   2.0000     -10.627533      -289.1899
  26   2.0000     -10.627473      -289.1882
  27   2.0000     -10.626834      -289.1709
  28   2.0000     -10.626712      -289.1675
  29   2.0000     -10.626652      -289.1659
  30   2.0000     -10.624532      -289.1082
  31   2.0000     -10.623924      -289.0917
  32   2.0000     -10.622919      -289.0643
  33   2.0000     -10.622531      -289.0538
  34   2.0000     -10.621057      -289.0137
  35   2.0000     -10.619734      -288.9777
  36   2.0000     -10.619625      -288.9747
  37   2.0000     -10.619023      -288.9583
  38   2.0000     -10.617714      -288.9227
  39   2.0000      -9.810400      -266.9545
  40   2.0000      -7.447372      -202.6533
  41   2.0000      -7.445996      -202.6159
  42   2.0000      -7.445767      -202.6096
  43   2.0000      -6.967482      -189.5948
  44   2.0000      -6.963159      -189.4772
  45   2.0000      -5.019124      -136.5773
  46   2.0000      -5.018891      -136.5710
  47   2.0000      -5.017055      -136.5210
  48   2.0000      -5.014721      -136.4575
  49   2.0000      -5.014501      -136.4515
  50   2.0000      -5.012242      -136.3900
  51   2.0000      -3.418735       -93.0285
  52   2.0000      -2.125303       -57.8324
  53   2.0000      -2.123551       -57.7848
  54   2.0000      -2.093872       -56.9772
  55   2.0000      -0.998288       -27.1648
  56   2.0000      -0.992161       -26.9981
  57   2.0000      -0.989308       -26.9204
  58   2.0000      -0.985508       -26.8170
  59   2.0000      -0.982034       -26.7225
  60   2.0000      -0.978019       -26.6132
  61   2.0000      -0.900348       -24.4997
  62   2.0000      -0.894129       -24.3305
  63   2.0000      -0.872972       -23.7548
  64   2.0000      -0.872661       -23.7463
  65   2.0000      -0.869031       -23.6475
  66   2.0000      -0.867786       -23.6137
  67   2.0000      -0.865170       -23.5425
  68   2.0000      -0.863745       -23.5037
  69   2.0000      -0.862634       -23.4735
  70   2.0000      -0.860136       -23.4055
  71   2.0000      -0.857984       -23.3469
  72   2.0000      -0.855733       -23.2857
  73   2.0000      -0.822177       -22.3726
  74   2.0000      -0.763494       -20.7757
  75   2.0000      -0.756987       -20.5987
  76   2.0000      -0.715437       -19.4680
  77   2.0000      -0.712566       -19.3899
  78   2.0000      -0.710288       -19.3279
  79   2.0000      -0.706014       -19.2116
  80   2.0000      -0.702928       -19.1276
  81   2.0000      -0.698861       -19.0170
  82   2.0000      -0.698538       -19.0082
  83   2.0000      -0.697135       -18.9700
  84   2.0000      -0.694118       -18.8879
  85   2.0000      -0.688311       -18.7299
  86   2.0000      -0.656786       -17.8721
  87   2.0000      -0.649608       -17.6767
  88   2.0000      -0.607368       -16.5273
  89   2.0000      -0.606664       -16.5082
  90   2.0000      -0.601958       -16.3801
  91   2.0000      -0.596791       -16.2395
  92   2.0000      -0.587207       -15.9787
  93   2.0000      -0.581088       -15.8122
  94   2.0000      -0.543716       -14.7953
  95   2.0000      -0.542509       -14.7624
  96   2.0000      -0.540808       -14.7161
  97   2.0000      -0.538827       -14.6622
  98   2.0000      -0.536933       -14.6107
  99   2.0000      -0.533394       -14.5144
 100   2.0000      -0.531156       -14.4535
 101   2.0000      -0.530488       -14.4353
 102   2.0000      -0.527291       -14.3483
 103   2.0000      -0.526786       -14.3346
 104   2.0000      -0.523916       -14.2565
 105   2.0000      -0.519308       -14.1311
 106   2.0000      -0.506322       -13.7777
 107   2.0000      -0.503426       -13.6989
 108   2.0000      -0.500721       -13.6253
 109   2.0000      -0.499070       -13.5804
 110   2.0000      -0.495552       -13.4847
 111   2.0000      -0.493431       -13.4269
 112   2.0000      -0.490491       -13.3469
 113   2.0000      -0.486479       -13.2378
 114   2.0000      -0.482555       -13.1310
 115   2.0000      -0.475698       -12.9444
 116   2.0000      -0.460759       -12.5379
 117   2.0000      -0.449054       -12.2194
 118   2.0000      -0.444798       -12.1036
 119   2.0000      -0.443215       -12.0605
 120   2.0000      -0.435555       -11.8520
 121   2.0000      -0.432216       -11.7612
 122   2.0000      -0.426984       -11.6188
 123   2.0000      -0.422255       -11.4902
 124   2.0000      -0.420861       -11.4522
 125   2.0000      -0.419377       -11.4118
 126   2.0000      -0.416391       -11.3306
 127   2.0000      -0.415665       -11.3108
 128   2.0000      -0.413345       -11.2477
 129   2.0000      -0.408028       -11.1030
 130   2.0000      -0.404945       -11.0191
 131   2.0000      -0.399949       -10.8832
 132   2.0000      -0.394785       -10.7426
 133   2.0000      -0.391082       -10.6419
 134   2.0000      -0.388724       -10.5777
 135   2.0000      -0.375858       -10.2276
 136   2.0000      -0.346658        -9.4330
 137   2.0000      -0.324596        -8.8327
 138   2.0000      -0.319891        -8.7047
 139   2.0000      -0.318356        -8.6629
 140   2.0000      -0.310066        -8.4373
 141   2.0000      -0.309244        -8.4150
 142   2.0000      -0.303578        -8.2608
 143   2.0000      -0.300376        -8.1737
 144   2.0000      -0.299685        -8.1548
 145   2.0000      -0.296851        -8.0777
 146   2.0000      -0.292504        -7.9594
 147   2.0000      -0.289417        -7.8754
 148   2.0000      -0.286434        -7.7943
 149   2.0000      -0.283990        -7.7278
 150   2.0000      -0.283581        -7.7166
 151   2.0000      -0.276808        -7.5323
 152   2.0000      -0.263576        -7.1723
 153   2.0000      -0.248697        -6.7674
 154   2.0000      -0.234606        -6.3840
 155   0.0000      -0.007163        -0.1949
 156   0.0000       0.004874         0.1326
 157   0.0000       0.009995         0.2720
 158   0.0000       0.011705         0.3185
 159   0.0000       0.017646         0.4802

MULLIKEN ATOMIC CHARGES
-----------------------
   0 C :    0.852577
   1 C :    0.145873
   2 C :   -0.094153
   3 C :   -0.297396
   4 C :    0.058746
   5 C :   -0.819346
   6 P :    2.934805
   7 C :   -0.131633
   8 C :    0.123295
   9 C :   -0.297145
  10 C :    0.089626
  11 C :   -0.394422
  12 C :    0.008792
  13 Rh:   -1.476424
  14 Cl:   -0.697778
  15 P :    1.649178
  16 C :    1.124202
  17 C :   -0.330927
  18 C :   -0.261819
  19 C :   -0.009741
  20 C :   -0.404980
  21 C :    0.142799
  22 C :    0.985358
  23 C :   -0.265175
  24 C :   -0.377666
  25 C :    0.092837
  26 C :   -0.256847
  27 C :   -0.064285
  28 C :    0.309957
  29 C :   -0.259772
  30 C :   -0.213641
  31 C :    0.083083
  32 C :   -0.365916
  33 C :    0.031759
  34 C :    0.216089
  35 C :    0.404662
  36 C :   -0.582313
  37 C :    0.037674
  38 C :   -0.307244
  39 C :    0.044687
  40 H :   -0.137741
  41 H :   -0.054485
  42 H :   -0.016500
  43 H :   -0.046368
  44 H :   -0.033564
  45 H :   -0.010156
  46 H :   -0.146678
  47 H :   -0.087238
  48 H :   -0.104522
  49 H :   -0.237088
  50 H :    0.156205
  51 H :   -0.056495
  52 H :   -0.027453
  53 H :   -0.063241
  54 H :    0.032900
  55 H :    0.030416
  56 H :   -0.060356
  57 H :   -0.021662
  58 H :   -0.052823
  59 H :    0.010167
  60 H :   -0.035295
  61 H :   -0.049504
  62 H :   -0.009657
  63 H :   -0.046315
  64 H :    0.011165
  65 H :   -0.117986
  66 H :   -0.148000
  67 H :   -0.062107
  68 H :   -0.110338
  69 H :    0.067346
Sum of atomic charges:   -0.0000000

LOEWDIN ATOMIC CHARGES
----------------------
   0 C :   -0.023132
   1 C :   -0.302023
   2 C :    0.008895
   3 C :    0.021635
   4 C :    0.014527
   5 C :    0.024822
   6 P :    0.921816
   7 C :   -0.304116
   8 C :   -0.032760
   9 C :    0.023530
  10 C :    0.017040
  11 C :    0.020477
  12 C :    0.011711
  13 Rh:    0.048189
  14 Cl:   -0.192423
  15 P :    0.926348
  16 C :   -0.312539
  17 C :    0.004096
  18 C :    0.018026
  19 C :    0.016726
  20 C :    0.022082
  21 C :   -0.029568
  22 C :   -0.292664
  23 C :   -0.015975
  24 C :    0.023924
  25 C :    0.018608
  26 C :    0.020668
  27 C :    0.008881
  28 C :   -0.292970
  29 C :   -0.025168
  30 C :    0.026266
  31 C :    0.021136
  32 C :    0.023608
  33 C :   -0.007103
  34 C :   -0.295981
  35 C :   -0.019256
  36 C :    0.020388
  37 C :    0.017067
  38 C :    0.025683
  39 C :   -0.013222
  40 H :   -0.007190
  41 H :    0.003849
  42 H :    0.000344
  43 H :    0.001062
  44 H :   -0.005904
  45 H :   -0.009872
  46 H :    0.004766
  47 H :    0.001089
  48 H :    0.003160
  49 H :   -0.003315
  50 H :   -0.027706
  51 H :    0.004301
  52 H :    0.000796
  53 H :    0.001390
  54 H :    0.006133
  55 H :   -0.003268
  56 H :    0.000207
  57 H :   -0.000225
  58 H :    0.003078
  59 H :   -0.075817
  60 H :   -0.041832
  61 H :    0.001765
  62 H :   -0.000544
  63 H :   -0.000283
  64 H :   -0.006339
  65 H :    0.003205
  66 H :    0.005847
  67 H :    0.002650
  68 H :    0.005323
  69 H :   -0.013918

  Mayer bond orders larger than 0.100000
B(  0-C ,  1-C ) :   1.2789 B(  0-C ,  5-C ) :   0.6024 B(  0-C ,  7-C ) :  -0.1427
B(  0-C , 34-C ) :   0.1484 B(  0-C , 68-H ) :  -0.2363 B(  0-C , 69-H ) :   0.9432
B(  1-C ,  2-C ) :   0.8779 B(  1-C ,  6-P ) :   0.6469 B(  1-C ,  7-C ) :   0.3221
B(  1-C , 12-C ) :   0.1201 B(  1-C , 15-P ) :   0.1854 B(  1-C , 34-C ) :   0.1771
B(  1-C , 65-H ) :  -0.1433 B(  1-C , 69-H ) :  -0.2253 B(  2-C ,  3-C ) :   1.2213
B(  2-C ,  8-C ) :  -0.1308 B(  2-C , 12-C ) :   0.1075 B(  2-C , 34-C ) :  -0.1800
B(  2-C , 65-H ) :   1.1090 B(  2-C , 66-H ) :  -0.1130 B(  3-C ,  4-C ) :   1.1651
B(  3-C ,  5-C ) :   0.1303 B(  3-C ,  6-P ) :  -0.1077 B(  3-C ,  7-C ) :   0.1175
B(  3-C , 65-H ) :  -0.1547 B(  3-C , 66-H ) :   1.1917 B(  3-C , 67-H ) :  -0.1163
B(  4-C ,  5-C ) :   1.0845 B(  4-C , 66-H ) :  -0.1554 B(  4-C , 67-H ) :   1.1656
B(  4-C , 68-H ) :  -0.1216 B(  5-C ,  6-P ) :   0.1103 B(  5-C , 34-C ) :  -0.1484
B(  5-C , 36-C ) :   0.1203 B(  5-C , 39-C ) :  -0.2161 B(  5-C , 67-H ) :  -0.1592
B(  5-C , 68-H ) :   1.3640 B(  5-C , 69-H ) :  -0.1236 B(  6-P ,  7-C ) :   0.4947
B(  6-P , 11-C ) :  -0.1285 B(  6-P , 12-C ) :  -0.5056 B(  6-P , 13-Rh) :   0.4403
B(  6-P , 14-Cl) :  -1.0163 B(  6-P , 15-P ) :  -0.4534 B(  6-P , 22-C ) :   0.2989
B(  6-P , 34-C ) :   0.3737 B(  6-P , 35-C ) :   0.4352 B(  6-P , 50-H ) :   0.1423
B(  7-C ,  8-C ) :   0.9791 B(  7-C , 12-C ) :   1.2868 B(  7-C , 15-P ) :   0.1320
B(  7-C , 34-C ) :   0.8756 B(  7-C , 35-C ) :  -0.5120 B(  8-C ,  9-C ) :   1.0929
B(  8-C , 13-Rh) :   0.1081 B(  8-C , 39-C ) :   0.1676 B(  8-C , 60-H ) :   0.9570
B(  9-C , 10-C ) :   1.0846 B(  9-C , 11-C ) :   0.1083 B(  9-C , 60-H ) :  -0.1691
B(  9-C , 61-H ) :   1.1754 B(  9-C , 62-H ) :  -0.1247 B( 10-C , 11-C ) :   1.0835
B( 10-C , 61-H ) :  -0.1389 B( 10-C , 62-H ) :   1.1430 B( 10-C , 63-H ) :  -0.1289
B( 11-C , 12-C ) :   1.2119 B( 11-C , 35-C ) :  -0.1171 B( 11-C , 39-C ) :   0.1066
B( 11-C , 62-H ) :  -0.1223 B( 11-C , 63-H ) :   1.1625 B( 11-C , 64-H ) :  -0.1536
B( 12-C , 35-C ) :   0.3172 B( 12-C , 39-C ) :  -0.2869 B( 12-C , 63-H ) :  -0.1004
B( 12-C , 64-H ) :   0.9935 B( 13-Rh, 14-Cl) :   1.4592 B( 13-Rh, 15-P ) :   0.9357
B( 13-Rh, 16-C ) :  -0.1226 B( 13-Rh, 21-C ) :   0.1940 B( 13-Rh, 22-C ) :  -0.1049
B( 13-Rh, 29-C ) :   0.1062 B( 13-Rh, 34-C ) :   0.1786 B( 13-Rh, 35-C ) :  -0.1450
B( 13-Rh, 39-C ) :   0.1477 B( 13-Rh, 49-H ) :   0.1267 B( 15-P , 16-C ) :   0.4909
B( 15-P , 21-C ) :   0.3244 B( 15-P , 22-C ) :  -0.3618 B( 15-P , 23-C ) :  -0.2322
B( 15-P , 24-C ) :  -0.1196 B( 15-P , 27-C ) :  -0.3284 B( 15-P , 28-C ) :   1.2410
B( 15-P , 29-C ) :  -0.2964 B( 15-P , 33-C ) :  -0.2878 B( 16-C , 17-C ) :   0.5242
B( 16-C , 18-C ) :  -0.2520 B( 16-C , 19-C ) :  -0.1218 B( 16-C , 20-C ) :  -0.2495
B( 16-C , 21-C ) :   1.0822 B( 16-C , 22-C ) :   0.3061 B( 16-C , 27-C ) :   0.1068
B( 16-C , 28-C ) :   0.3070 B( 16-C , 45-H ) :  -0.2042 B( 16-C , 49-H ) :  -0.2667
B( 17-C , 18-C ) :   1.2779 B( 17-C , 20-C ) :   0.2168 B( 17-C , 22-C ) :  -0.1942
B( 17-C , 44-H ) :  -0.1075 B( 17-C , 45-H ) :   1.0695 B( 17-C , 46-H ) :  -0.1462
B( 18-C , 19-C ) :   1.1817 B( 18-C , 45-H ) :  -0.1226 B( 18-C , 46-H ) :   1.2324
B( 18-C , 47-H ) :  -0.1369 B( 19-C , 20-C ) :   1.1952 B( 19-C , 46-H ) :  -0.1150
B( 19-C , 47-H ) :   1.2061 B( 19-C , 48-H ) :  -0.1448 B( 20-C , 21-C ) :   1.0018
B( 20-C , 47-H ) :  -0.1252 B( 20-C , 48-H ) :   1.2555 B( 20-C , 49-H ) :  -0.1361
B( 21-C , 29-C ) :  -0.1062 B( 21-C , 48-H ) :  -0.1138 B( 21-C , 49-H ) :   1.1042
B( 22-C , 23-C ) :   0.6135 B( 22-C , 24-C ) :  -0.1200 B( 22-C , 26-C ) :  -0.1289
B( 22-C , 27-C ) :   1.0637 B( 22-C , 28-C ) :   0.1667 B( 22-C , 29-C ) :   0.3255
B( 22-C , 40-H ) :  -0.2851 B( 23-C , 24-C ) :   1.3650 B( 23-C , 28-C ) :   0.2660
B( 23-C , 29-C ) :  -0.1586 B( 23-C , 33-C ) :   0.1063 B( 23-C , 40-H ) :   1.2315
B( 24-C , 25-C ) :   1.1004 B( 24-C , 41-H ) :   1.1545 B( 24-C , 42-H ) :  -0.1153
B( 25-C , 26-C ) :   1.1186 B( 25-C , 41-H ) :  -0.1351 B( 25-C , 42-H ) :   1.1399
B( 25-C , 43-H ) :  -0.1237 B( 26-C , 27-C ) :   1.1609 B( 26-C , 42-H ) :  -0.1197
B( 26-C , 43-H ) :   1.1593 B( 26-C , 44-H ) :  -0.1625 B( 27-C , 44-H ) :   1.1411
B( 28-C , 29-C ) :   0.9231 B( 28-C , 32-C ) :  -0.2470 B( 28-C , 33-C ) :   0.8092
B( 28-C , 50-H ) :  -0.2182 B( 29-C , 30-C ) :   1.0788 B( 29-C , 33-C ) :   0.1407
B( 29-C , 50-H ) :   0.9301 B( 30-C , 31-C ) :   1.1116 B( 30-C , 50-H ) :  -0.1215
B( 30-C , 51-H ) :   1.1623 B( 30-C , 52-H ) :  -0.1300 B( 31-C , 32-C ) :   1.0943
B( 31-C , 51-H ) :  -0.1202 B( 31-C , 52-H ) :   1.1634 B( 31-C , 53-H ) :  -0.1407
B( 32-C , 33-C ) :   1.3503 B( 32-C , 52-H ) :  -0.1232 B( 32-C , 53-H ) :   1.2027
B( 32-C , 54-H ) :  -0.1175 B( 33-C , 54-H ) :   1.0289 B( 34-C , 35-C ) :   0.9011
B( 34-C , 36-C ) :  -0.1450 B( 34-C , 38-C ) :  -0.1404 B( 34-C , 39-C ) :   1.2919
B( 34-C , 55-H ) :  -0.1226 B( 35-C , 36-C ) :   1.0152 B( 35-C , 55-H ) :   1.0221
B( 35-C , 56-H ) :  -0.1520 B( 36-C , 37-C ) :   1.1418 B( 36-C , 55-H ) :  -0.1050
B( 36-C , 56-H ) :   1.2582 B( 36-C , 57-H ) :  -0.1204 B( 37-C , 38-C ) :   1.1223
B( 37-C , 56-H ) :  -0.1249 B( 37-C , 57-H ) :   1.1495 B( 37-C , 58-H ) :  -0.1324
B( 38-C , 39-C ) :   1.1122 B( 38-C , 57-H ) :  -0.1208 B( 38-C , 58-H ) :   1.1852
B( 38-C , 59-H ) :  -0.1626 B( 39-C , 59-H ) :   1.0897 B( 39-C , 69-H ) :   0.1533

MP2 TOTAL ENERGY:    -2642.374428180 Eh
Dispersion correction           -0.116967465
FINAL SINGLE POINT ENERGY     -2642.491395644910

DIPOLE MOMENT
-------------
                                X             Y             Z
Electronic contribution:      2.04304     -60.57446    -101.94237
Nuclear contribution   :     -3.11357      62.05191     104.48164
                        -----------------------------------------
Total Dipole Moment    :     -1.07053       1.47745       2.53927
                        -----------------------------------------
Magnitude (a.u.)       :      3.12678
Magnitude (Debye)      :      7.94765

Rotational constants in cm-1:     0.003240     0.002395     0.002360
Rotational constants in MHz :    97.140326    71.802021    70.757797

                             ****ORCA TERMINATED NORMALLY****
TOTAL RUN TIME: 0 days 0 hours 30 minutes 23 seconds 954 msec
