                         Program Version 4.2.0 -  RELEASE  -
|  1> #
|  2> # MOR18_ed37 ri-B2PLYP-D3BJ/Def2-TZVPPD
|  3> #
|  4> ! rijk ri-b2plyp d3bj def2-tzvppd def2/jk def2-tzvppd/c grid4 nofinalgrid
|  5>
|  6> *xyz 0 1
|  7> Mo      -0.098072   -0.000113   -0.000040
|  8> O       -1.958568   -1.162297    2.254949
|  9> C       -1.292076   -0.726548    1.409379
| 10> C       -1.290510    1.584735   -0.075353
| 11> O       -1.955816    2.535729   -0.120716
| 12> C       -1.292074   -0.856985   -1.334180
| 13> O       -1.958517   -1.371361   -2.134397
| 14> C        1.772262   -1.255233   -0.664863
| 15> C        1.773533   -1.210923    0.743855
| 16> C        1.772126    0.051067    1.419259
| 17> C        1.773764    1.248901    0.676519
| 18> C        1.772513    1.202801   -0.754108
| 19> C        1.773865   -0.039338   -1.420099
| 20> H        1.752441   -2.209415   -1.178166
| 21> H        1.754475   -2.130485    1.316775
| 22> H        1.752160    0.083668    2.502258
| 23> H        1.754801    2.204840    1.186440
| 24> H        1.752821    2.124408   -1.323840
| 25> H        1.755108   -0.075692   -2.502938
| 26> *
| 27>
| 28> %maxcore 5000
| 29>
| 30> %pal
| 31> nprocs = 24
| 32> end
| 33>
| 34>
| 35>                          ****END OF INPUT****

CARTESIAN COORDINATES (ANGSTROEM)
---------------------------------
  Mo    -0.098072   -0.000113   -0.000040
  O     -1.958568   -1.162297    2.254949
  C     -1.292076   -0.726548    1.409379
  C     -1.290510    1.584735   -0.075353
  O     -1.955816    2.535729   -0.120716
  C     -1.292074   -0.856985   -1.334180
  O     -1.958517   -1.371361   -2.134397
  C      1.772262   -1.255233   -0.664863
  C      1.773533   -1.210923    0.743855
  C      1.772126    0.051067    1.419259
  C      1.773764    1.248901    0.676519
  C      1.772513    1.202801   -0.754108
  C      1.773865   -0.039338   -1.420099
  H      1.752441   -2.209415   -1.178166
  H      1.754475   -2.130485    1.316775
  H      1.752160    0.083668    2.502258
  H      1.754801    2.204840    1.186440
  H      1.752821    2.124408   -1.323840
  H      1.755108   -0.075692   -2.502938

 Total Charge           Charge          ....    0
 Multiplicity           Mult            ....    1
 Number of Electrons    NEL             ....   98
 Basis Dimension        Dim             ....  611

ORBITAL ENERGIES
----------------

  NO   OCC          E(Eh)            E(eV)
   0   2.0000     -19.779112      -538.2170
   1   2.0000     -19.779109      -538.2169
   2   2.0000     -19.779106      -538.2168
   3   2.0000     -10.721834      -291.7559
   4   2.0000     -10.721829      -291.7558
   5   2.0000     -10.721824      -291.7557
   6   2.0000     -10.677189      -290.5411
   7   2.0000     -10.676878      -290.5326
   8   2.0000     -10.676875      -290.5325
   9   2.0000     -10.676011      -290.5090
  10   2.0000     -10.676010      -290.5090
  11   2.0000     -10.675677      -290.4999
  12   2.0000      -2.745087       -74.6976
  13   2.0000      -1.695815       -46.1455
  14   2.0000      -1.681615       -45.7591
  15   2.0000      -1.681603       -45.7588
  16   2.0000      -1.251064       -34.0432
  17   2.0000      -1.250374       -34.0244
  18   2.0000      -1.250372       -34.0244
  19   2.0000      -1.031181       -28.0599
  20   2.0000      -0.913617       -24.8608
  21   2.0000      -0.913615       -24.8607
  22   2.0000      -0.745560       -20.2877
  23   2.0000      -0.745558       -20.2877
  24   2.0000      -0.654464       -17.8089
  25   2.0000      -0.650161       -17.6918
  26   2.0000      -0.635615       -17.2960
  27   2.0000      -0.635608       -17.2958
  28   2.0000      -0.586101       -15.9486
  29   2.0000      -0.564015       -15.3476
  30   2.0000      -0.550765       -14.9871
  31   2.0000      -0.550762       -14.9870
  32   2.0000      -0.535266       -14.5653
  33   2.0000      -0.512532       -13.9467
  34   2.0000      -0.509956       -13.8766
  35   2.0000      -0.509945       -13.8763
  36   2.0000      -0.500908       -13.6304
  37   2.0000      -0.500902       -13.6302
  38   2.0000      -0.493242       -13.4218
  39   2.0000      -0.483337       -13.1523
  40   2.0000      -0.483321       -13.1518
  41   2.0000      -0.459036       -12.4910
  42   2.0000      -0.457888       -12.4598
  43   2.0000      -0.457883       -12.4596
  44   2.0000      -0.376065       -10.2333
  45   2.0000      -0.376054       -10.2330
  46   2.0000      -0.253387        -6.8950
  47   2.0000      -0.246203        -6.6995
  48   2.0000      -0.246186        -6.6991
  49   0.0000      -0.008582        -0.2335
  50   0.0000      -0.008571        -0.2332
  51   0.0000       0.017007         0.4628
  52   0.0000       0.027293         0.7427
  53   0.0000       0.027302         0.7429

MULLIKEN ATOMIC CHARGES
-----------------------
   0 Mo:   -0.291160
   1 O :   -0.318802
   2 C :    0.314190
   3 C :    0.314204
   4 O :   -0.318738
   5 C :    0.314453
   6 O :   -0.318889
   7 C :    0.077870
   8 C :    0.032117
   9 C :    0.076545
  10 C :    0.032671
  11 C :    0.077521
  12 C :    0.032306
  13 H :   -0.000757
  14 H :   -0.007185
  15 H :   -0.000736
  16 H :   -0.007472
  17 H :   -0.001154
  18 H :   -0.006985
Sum of atomic charges:    0.0000000

LOEWDIN ATOMIC CHARGES
----------------------
   0 Mo:    0.661579
   1 O :    0.049514
   2 C :   -0.200470
   3 C :   -0.200508
   4 O :    0.049525
   5 C :   -0.200480
   6 O :    0.049505
   7 C :   -0.048576
   8 C :   -0.047430
   9 C :   -0.048624
  10 C :   -0.047462
  11 C :   -0.048613
  12 C :   -0.047443
  13 H :    0.013436
  14 H :    0.013045
  15 H :    0.013444
  16 H :    0.013057
  17 H :    0.013452
  18 H :    0.013050

  Mayer bond orders larger than 0.100000
B(  0-Mo,  2-C ) :   1.2729 B(  0-Mo,  3-C ) :   1.2727 B(  0-Mo,  5-C ) :   1.2730
B(  0-Mo,  7-C ) :   0.3876 B(  0-Mo,  8-C ) :   0.4028 B(  0-Mo,  9-C ) :   0.3873
B(  0-Mo, 10-C ) :   0.4031 B(  0-Mo, 11-C ) :   0.3876 B(  0-Mo, 12-C ) :   0.4027
B(  1-O ,  2-C ) :   1.9679 B(  3-C ,  4-O ) :   1.9678 B(  5-C ,  6-O ) :   1.9680
B(  7-C ,  8-C ) :   1.2083 B(  7-C ,  9-C ) :  -0.1359 B(  7-C , 11-C ) :  -0.1367
B(  7-C , 12-C ) :   0.9864 B(  7-C , 13-H ) :   1.0611 B(  8-C ,  9-C ) :   0.9867
B(  8-C , 10-C ) :  -0.1278 B(  8-C , 12-C ) :  -0.1286 B(  8-C , 14-H ) :   1.0651
B(  9-C , 10-C ) :   1.2073 B(  9-C , 11-C ) :  -0.1367 B(  9-C , 15-H ) :   1.0626
B( 10-C , 11-C ) :   0.9848 B( 10-C , 12-C ) :  -0.1276 B( 10-C , 16-H ) :   1.0651
B( 11-C , 12-C ) :   1.2081 B( 11-C , 17-H ) :   1.0628 B( 12-C , 18-H ) :   1.0653

MP2 TOTAL ENERGY:     -640.298194649 Eh
Dispersion correction           -0.023934920
FINAL SINGLE POINT ENERGY      -640.322129569874

DIPOLE MOMENT
-------------
                                X             Y             Z
Electronic contribution:    -10.92701      -0.00589      -0.00267
Nuclear contribution   :     13.46160       0.00506       0.00283
                        -----------------------------------------
Total Dipole Moment    :      2.53459      -0.00083       0.00016
                        -----------------------------------------
Magnitude (a.u.)       :      2.53459
Magnitude (Debye)      :      6.44241

Rotational constants in cm-1:     0.028916     0.021584     0.021580
Rotational constants in MHz :   866.875127   647.065472   646.965216

                             ****ORCA TERMINATED NORMALLY****
TOTAL RUN TIME: 0 days 0 hours 0 minutes 37 seconds 538 msec
