                         Program Version 4.2.0 -  RELEASE  -
|  1> #
|  2> # MOR14_ed26 ri-B2PLYP-D3BJ/Def2-TZVPPD
|  3> #
|  4> ! rijk ri-b2plyp d3bj def2-tzvppd def2/jk def2-tzvppd/c grid4 nofinalgrid
|  5>
|  6> *xyz 0 1
|  7> Ru      -0.064344   -0.175682   -0.012222
|  8> C        1.546320    1.136494   -0.983353
|  9> C        1.182588    1.622095    0.326342
| 10> C        2.076803   -0.497674    0.579629
| 11> C        2.043947   -0.183601   -0.846926
| 12> C        1.561141    0.611266    1.297590
| 13> C        1.492783    1.931783   -2.249249
| 14> H        0.696535    2.680581   -2.225612
| 15> H        1.338709    1.291322   -3.121811
| 16> H        2.442862    2.463439   -2.390633
| 17> C        2.565540   -1.075324   -1.928175
| 18> H        2.249514   -0.728507   -2.915600
| 19> H        2.192282   -2.094362   -1.786204
| 20> H        3.663236   -1.101421   -1.912436
| 21> C        2.692583   -1.723434    1.172166
| 22> H        3.783501   -1.598681    1.210971
| 23> H        2.457484   -2.606090    0.574387
| 24> H        2.333089   -1.899010    2.188816
| 25> C        1.552612    0.773239    2.786124
| 26> H        2.502734    1.205302    3.127194
| 27> H        1.421923   -0.187720    3.289969
| 28> H        0.754394    1.442873    3.118115
| 29> C        0.799428    3.031668    0.660505
| 30> H        1.693878    3.613580    0.920796
| 31> H        0.118442    3.075561    1.514596
| 32> H        0.315927    3.528553   -0.183556
| 33> Cl      -0.006885   -2.617235   -0.279085
| 34> C       -1.774511   -0.580489   -1.372668
| 35> C       -1.428717    0.775607   -1.463600
| 36> C       -2.230150    1.901113   -0.842184
| 37> C       -2.597560    1.596364    0.619137
| 38> C       -1.528383    0.747182    1.301561
| 39> C       -1.615603   -0.659023    1.435525
| 40> C       -2.738883   -1.472042    0.832207
| 41> C       -3.001399   -1.117797   -0.653050
| 42> H       -3.131417    2.097786   -1.444322
| 43> H       -3.561641    1.080890    0.673312
| 44> H       -1.631000    2.816891   -0.882167
| 45> H       -3.816216   -0.389170   -0.734954
| 46> H       -1.353755   -1.240657   -2.123162
| 47> H       -0.836828    1.063474   -2.328552
| 48> H       -3.337183   -2.018298   -1.174989
| 49> H       -2.460187   -2.525401    0.898608
| 50> H       -1.127422   -1.117347    2.293712
| 51> H       -3.660878   -1.338434    1.419672
| 52> H       -2.720080    2.533691    1.172959
| 53> H       -0.970929    1.269583    2.073632
| 54> *
| 55>
| 56> %maxcore 5000
| 57>
| 58> %pal
| 59> nprocs = 24
| 60> end
| 61>
| 62>
| 63>                          ****END OF INPUT****

CARTESIAN COORDINATES (ANGSTROEM)
---------------------------------
  Ru    -0.064344   -0.175682   -0.012222
  C      1.546320    1.136494   -0.983353
  C      1.182588    1.622095    0.326342
  C      2.076803   -0.497674    0.579629
  C      2.043947   -0.183601   -0.846926
  C      1.561141    0.611266    1.297590
  C      1.492783    1.931783   -2.249249
  H      0.696535    2.680581   -2.225612
  H      1.338709    1.291322   -3.121811
  H      2.442862    2.463439   -2.390633
  C      2.565540   -1.075324   -1.928175
  H      2.249514   -0.728507   -2.915600
  H      2.192282   -2.094362   -1.786204
  H      3.663236   -1.101421   -1.912436
  C      2.692583   -1.723434    1.172166
  H      3.783501   -1.598681    1.210971
  H      2.457484   -2.606090    0.574387
  H      2.333089   -1.899010    2.188816
  C      1.552612    0.773239    2.786124
  H      2.502734    1.205302    3.127194
  H      1.421923   -0.187720    3.289969
  H      0.754394    1.442873    3.118115
  C      0.799428    3.031668    0.660505
  H      1.693878    3.613580    0.920796
  H      0.118442    3.075561    1.514596
  H      0.315927    3.528553   -0.183556
  Cl    -0.006885   -2.617235   -0.279085
  C     -1.774511   -0.580489   -1.372668
  C     -1.428717    0.775607   -1.463600
  C     -2.230150    1.901113   -0.842184
  C     -2.597560    1.596364    0.619137
  C     -1.528383    0.747182    1.301561
  C     -1.615603   -0.659023    1.435525
  C     -2.738883   -1.472042    0.832207
  C     -3.001399   -1.117797   -0.653050
  H     -3.131417    2.097786   -1.444322
  H     -3.561641    1.080890    0.673312
  H     -1.631000    2.816891   -0.882167
  H     -3.816216   -0.389170   -0.734954
  H     -1.353755   -1.240657   -2.123162
  H     -0.836828    1.063474   -2.328552
  H     -3.337183   -2.018298   -1.174989
  H     -2.460187   -2.525401    0.898608
  H     -1.127422   -1.117347    2.293712
  H     -3.660878   -1.338434    1.419672
  H     -2.720080    2.533691    1.172959
  H     -0.970929    1.269583    2.073632

 Total Charge           Charge          ....    0
 Multiplicity           Mult            ....    1
 Number of Electrons    NEL             ....  168
 Basis Dimension        Dim             .... 1232

ORBITAL ENERGIES
----------------

  NO   OCC          E(Eh)            E(eV)
   0   2.0000    -102.802502     -2797.3983
   1   2.0000     -10.646994      -289.7194
   2   2.0000     -10.640521      -289.5433
   3   2.0000     -10.639592      -289.5180
   4   2.0000     -10.638327      -289.4836
   5   2.0000     -10.632975      -289.3380
   6   2.0000     -10.625921      -289.1460
   7   2.0000     -10.625781      -289.1422
   8   2.0000     -10.623537      -289.0811
   9   2.0000     -10.621913      -289.0369
  10   2.0000     -10.621747      -289.0324
  11   2.0000     -10.617006      -288.9034
  12   2.0000     -10.616196      -288.8814
  13   2.0000     -10.614095      -288.8242
  14   2.0000     -10.611623      -288.7569
  15   2.0000     -10.604831      -288.5721
  16   2.0000     -10.603953      -288.5482
  17   2.0000     -10.602167      -288.4996
  18   2.0000     -10.597811      -288.3811
  19   2.0000      -9.808566      -266.9047
  20   2.0000      -7.446422      -202.6274
  21   2.0000      -7.443605      -202.5508
  22   2.0000      -7.443513      -202.5483
  23   2.0000      -3.235963       -88.0550
  24   2.0000      -2.027596       -55.1737
  25   2.0000      -2.012035       -54.7503
  26   2.0000      -2.006165       -54.5905
  27   2.0000      -1.024484       -27.8776
  28   2.0000      -0.953361       -25.9423
  29   2.0000      -0.905725       -24.6460
  30   2.0000      -0.898568       -24.4513
  31   2.0000      -0.888614       -24.1804
  32   2.0000      -0.881529       -23.9876
  33   2.0000      -0.838831       -22.8257
  34   2.0000      -0.827689       -22.5226
  35   2.0000      -0.824556       -22.4373
  36   2.0000      -0.816915       -22.2294
  37   2.0000      -0.792657       -21.5693
  38   2.0000      -0.765194       -20.8220
  39   2.0000      -0.730912       -19.8891
  40   2.0000      -0.720382       -19.6026
  41   2.0000      -0.685160       -18.6442
  42   2.0000      -0.636797       -17.3281
  43   2.0000      -0.606101       -16.4928
  44   2.0000      -0.604440       -16.4477
  45   2.0000      -0.592339       -16.1184
  46   2.0000      -0.571647       -15.5553
  47   2.0000      -0.546947       -14.8832
  48   2.0000      -0.534990       -14.5578
  49   2.0000      -0.532029       -14.4773
  50   2.0000      -0.525538       -14.3006
  51   2.0000      -0.507412       -13.8074
  52   2.0000      -0.504268       -13.7218
  53   2.0000      -0.496982       -13.5236
  54   2.0000      -0.491533       -13.3753
  55   2.0000      -0.491256       -13.3678
  56   2.0000      -0.483373       -13.1532
  57   2.0000      -0.476973       -12.9791
  58   2.0000      -0.475754       -12.9459
  59   2.0000      -0.470823       -12.8117
  60   2.0000      -0.466718       -12.7000
  61   2.0000      -0.464816       -12.6483
  62   2.0000      -0.453686       -12.3454
  63   2.0000      -0.443751       -12.0751
  64   2.0000      -0.442901       -12.0520
  65   2.0000      -0.429417       -11.6850
  66   2.0000      -0.427176       -11.6240
  67   2.0000      -0.413282       -11.2460
  68   2.0000      -0.408930       -11.1276
  69   2.0000      -0.407901       -11.0995
  70   2.0000      -0.404588       -11.0094
  71   2.0000      -0.401697       -10.9307
  72   2.0000      -0.379737       -10.3332
  73   2.0000      -0.374876       -10.2009
  74   2.0000      -0.347156        -9.4466
  75   2.0000      -0.330334        -8.9888
  76   2.0000      -0.322973        -8.7885
  77   2.0000      -0.316452        -8.6111
  78   2.0000      -0.313025        -8.5178
  79   2.0000      -0.293725        -7.9927
  80   2.0000      -0.292076        -7.9478
  81   2.0000      -0.265762        -7.2318
  82   2.0000      -0.259259        -7.0548
  83   2.0000      -0.237304        -6.4574
  84   0.0000       0.019161         0.5214
  85   0.0000       0.023781         0.6471
  86   0.0000       0.032324         0.8796
  87   0.0000       0.036229         0.9858
  88   0.0000       0.041861         1.1391

MULLIKEN ATOMIC CHARGES
-----------------------
   0 Ru:   -2.108302
   1 C :    0.459516
   2 C :    1.435670
   3 C :    0.690247
   4 C :    0.465063
   5 C :    0.731531
   6 C :   -0.927092
   7 H :    0.137292
   8 H :    0.125179
   9 H :    0.149073
  10 C :   -1.074367
  11 H :    0.123435
  12 H :    0.144791
  13 H :    0.162681
  14 C :   -1.001013
  15 H :    0.164593
  16 H :    0.120299
  17 H :    0.101085
  18 C :   -0.827335
  19 H :    0.144026
  20 H :    0.106349
  21 H :    0.115029
  22 C :   -0.814809
  23 H :    0.162027
  24 H :    0.082609
  25 H :    0.107552
  26 Cl:   -0.614506
  27 C :   -0.817869
  28 C :    1.240065
  29 C :   -0.320421
  30 C :   -0.548664
  31 C :    0.251245
  32 C :    0.594997
  33 C :   -0.278177
  34 C :   -0.010107
  35 H :    0.185727
  36 H :    0.119412
  37 H :    0.041707
  38 H :    0.077899
  39 H :   -0.065143
  40 H :    0.422423
  41 H :    0.083066
  42 H :    0.166018
  43 H :   -0.144756
  44 H :    0.195662
  45 H :    0.134971
  46 H :    0.311323
Sum of atomic charges:    0.0000000

LOEWDIN ATOMIC CHARGES
----------------------
   0 Ru:    0.967411
   1 C :   -0.202901
   2 C :   -0.220873
   3 C :   -0.249920
   4 C :   -0.231492
   5 C :   -0.225666
   6 C :    0.170039
   7 H :   -0.017568
   8 H :   -0.010512
   9 H :    0.011114
  10 C :    0.160987
  11 H :   -0.014633
  12 H :   -0.048461
  13 H :    0.002719
  14 C :    0.142354
  15 H :    0.006206
  16 H :   -0.060662
  17 H :   -0.012747
  18 C :    0.181203
  19 H :    0.007509
  20 H :   -0.008254
  21 H :   -0.021708
  22 C :    0.179930
  23 H :    0.007161
  24 H :   -0.015545
  25 H :   -0.022814
  26 Cl:    0.140983
  27 C :   -0.143664
  28 C :   -0.086661
  29 C :   -0.006685
  30 C :    0.003762
  31 C :   -0.093800
  32 C :   -0.146137
  33 C :   -0.059947
  34 C :   -0.017035
  35 H :    0.023548
  36 H :    0.001517
  37 H :   -0.008364
  38 H :    0.002696
  39 H :   -0.036552
  40 H :   -0.020334
  41 H :    0.014781
  42 H :   -0.028209
  43 H :   -0.007831
  44 H :    0.018039
  45 H :    0.015369
  46 H :   -0.038354

  Mayer bond orders larger than 0.100000
B(  0-Ru,  1-C ) :   0.8030 B(  0-Ru,  2-C ) :   0.2230 B(  0-Ru,  3-C ) :   0.2581
B(  0-Ru,  4-C ) :   0.4468 B(  0-Ru,  5-C ) :   0.4765 B(  0-Ru,  6-C ) :   0.1664
B(  0-Ru, 10-C ) :   0.2371 B(  0-Ru, 14-C ) :   0.1479 B(  0-Ru, 26-Cl) :   0.8249
B(  0-Ru, 27-C ) :   1.4469 B(  0-Ru, 28-C ) :  -0.4455 B(  0-Ru, 29-C ) :   0.4633
B(  0-Ru, 30-C ) :   0.1655 B(  0-Ru, 31-C ) :   0.6541 B(  0-Ru, 32-C ) :   0.5219
B(  0-Ru, 33-C ) :   0.1844 B(  0-Ru, 34-C ) :   0.1528 B(  0-Ru, 39-H ) :   0.1308
B(  1-C ,  3-C ) :  -0.3833 B(  1-C ,  4-C ) :   0.5317 B(  1-C ,  5-C ) :  -0.5777
B(  1-C ,  6-C ) :   0.9397 B(  1-C ,  7-H ) :  -0.1101 B(  1-C ,  8-H ) :  -0.1441
B(  1-C , 10-C ) :  -0.1986 B(  1-C , 26-Cl) :   0.1284 B(  1-C , 28-C ) :  -0.1652
B(  2-C ,  3-C ) :  -0.1824 B(  2-C ,  4-C ) :  -0.3681 B(  2-C ,  5-C ) :   0.2985
B(  2-C ,  6-C ) :  -0.4316 B(  2-C , 10-C ) :   0.1107 B(  2-C , 18-C ) :  -0.2115
B(  2-C , 22-C ) :   0.5134 B(  2-C , 23-H ) :  -0.1009 B(  2-C , 24-H ) :  -0.1074
B(  2-C , 27-C ) :  -0.6774 B(  2-C , 28-C ) :   0.3158 B(  2-C , 29-C ) :  -0.1310
B(  2-C , 31-C ) :  -0.1735 B(  2-C , 40-H ) :   0.1155 B(  3-C ,  4-C ) :   0.5041
B(  3-C ,  5-C ) :   0.9089 B(  3-C , 12-H ) :   0.1259 B(  3-C , 14-C ) :   0.8429
B(  3-C , 16-H ) :  -0.1361 B(  3-C , 17-H ) :  -0.1607 B(  3-C , 27-C ) :  -0.4170
B(  3-C , 28-C ) :   0.1190 B(  4-C ,  5-C ) :  -0.6305 B(  4-C , 10-C ) :   0.6667
B(  4-C , 11-H ) :  -0.1604 B(  4-C , 12-H ) :  -0.1673 B(  4-C , 14-C ) :  -0.2037
B(  4-C , 26-Cl) :  -0.4367 B(  4-C , 27-C ) :   0.4184 B(  4-C , 32-C ) :  -0.1874
B(  5-C , 10-C ) :   0.1004 B(  5-C , 18-C ) :   0.7987 B(  5-C , 20-H ) :  -0.1450
B(  5-C , 21-H ) :  -0.1040 B(  5-C , 26-Cl) :   0.1825 B(  5-C , 27-C ) :   0.4423
B(  5-C , 32-C ) :   0.2408 B(  6-C ,  7-H ) :   1.0349 B(  6-C ,  8-H ) :   1.0541
B(  6-C ,  9-H ) :   0.9352 B(  6-C , 10-C ) :   0.1060 B(  6-C , 27-C ) :   0.2099
B(  6-C , 28-C ) :  -0.1275 B(  6-C , 32-C ) :   0.1015 B(  6-C , 40-H ) :  -0.1243
B( 10-C , 11-H ) :   1.0251 B( 10-C , 12-H ) :   1.0160 B( 10-C , 13-H ) :   0.9809
B( 10-C , 14-C ) :   0.1867 B( 14-C , 15-H ) :   0.9446 B( 14-C , 16-H ) :   1.0119
B( 14-C , 17-H ) :   1.0358 B( 14-C , 18-C ) :   0.1536 B( 18-C , 19-H ) :   0.9783
B( 18-C , 20-H ) :   1.0444 B( 18-C , 21-H ) :   1.0296 B( 22-C , 23-H ) :   0.9511
B( 22-C , 24-H ) :   1.0718 B( 22-C , 25-H ) :   1.0542 B( 26-Cl, 32-C ) :  -0.2264
B( 26-Cl, 33-C ) :   0.1049 B( 26-Cl, 34-C ) :  -0.1970 B( 26-Cl, 39-H ) :   0.1566
B( 27-C , 28-C ) :  -0.4055 B( 27-C , 29-C ) :   0.1008 B( 27-C , 32-C ) :  -0.3048
B( 27-C , 34-C ) :   1.0035 B( 27-C , 39-H ) :   1.5474 B( 27-C , 40-H ) :  -0.3679
B( 27-C , 43-H ) :   0.1328 B( 28-C , 29-C ) :   1.0452 B( 28-C , 32-C ) :   0.2231
B( 28-C , 37-H ) :   0.1449 B( 28-C , 39-H ) :  -0.4533 B( 28-C , 40-H ) :   1.0542
B( 28-C , 43-H ) :  -0.1362 B( 29-C , 30-C ) :   0.9746 B( 29-C , 31-C ) :  -0.1391
B( 29-C , 35-H ) :   0.9326 B( 29-C , 37-H ) :   0.8686 B( 29-C , 46-H ) :   0.1245
B( 30-C , 31-C ) :   1.1043 B( 30-C , 34-C ) :   0.1202 B( 30-C , 36-H ) :   0.9947
B( 30-C , 45-H ) :   0.9978 B( 31-C , 32-C ) :   1.0079 B( 31-C , 33-C ) :  -0.1401
B( 31-C , 46-H ) :   0.8064 B( 32-C , 33-C ) :   1.0812 B( 32-C , 43-H ) :   1.1946
B( 32-C , 46-H ) :  -0.2666 B( 33-C , 34-C ) :   0.9657 B( 33-C , 39-H ) :   0.1393
B( 33-C , 42-H ) :   0.8986 B( 33-C , 44-H ) :   0.9363 B( 34-C , 38-H ) :   0.9845
B( 34-C , 39-H ) :  -0.1051 B( 34-C , 41-H ) :   0.9438

MP2 TOTAL ENERGY:    -1256.788866760 Eh
Dispersion correction           -0.062028059
FINAL SINGLE POINT ENERGY     -1256.850894818954

DIPOLE MOMENT
-------------
                                X             Y             Z
Electronic contribution:     -3.17909     -21.55532      -2.00588
Nuclear contribution   :      3.57716      23.71136       2.15126
                        -----------------------------------------
Total Dipole Moment    :      0.39807       2.15604       0.14538
                        -----------------------------------------
Magnitude (a.u.)       :      2.19729
Magnitude (Debye)      :      5.58507

Rotational constants in cm-1:     0.013422     0.011126     0.009459
Rotational constants in MHz :   402.378908   333.556426   283.583792

                             ****ORCA TERMINATED NORMALLY****
TOTAL RUN TIME: 0 days 0 hours 4 minutes 49 seconds 46 msec
