                         Program Version 4.2.0 -  RELEASE  -
|  1> #
|  2> # MOR12_ed18 ri-B2PLYP-D3BJ/Def2-TZVPPD
|  3> #
|  4> ! rijk ri-b2plyp d3bj def2-tzvppd def2/jk def2-tzvppd/c grid4 nofinalgrid
|  5>
|  6> *xyz 0 1
|  7> Ir       0.000009    0.119441   -0.001134
|  8> P        2.313164   -0.026854    0.000864
|  9> C        3.266155    1.538041    0.001301
| 10> C        2.990776   -0.938546    1.437922
| 11> H        4.076753   -1.056364    1.355244
| 12> H        4.080827   -1.059585   -1.345638
| 13> H        2.508332   -1.918605    1.474823
| 14> H        2.511934   -1.920062   -1.470843
| 15> H        3.000883    2.123603    0.885753
| 16> H        2.748975   -0.395301    2.355327
| 17> C        2.995346   -0.940504   -1.432774
| 18> H        4.343510    1.342437    0.003886
| 19> H        2.757870   -0.397739   -2.351580
| 20> H        3.004825    2.121649   -0.885628
| 21> P       -2.313239   -0.026297    0.000821
| 22> C       -3.266059    1.538685   -0.001751
| 23> C       -2.995240   -0.942628   -1.431183
| 24> H       -2.509974   -1.915937    1.477317
| 25> H       -4.077346   -1.051885    1.357522
| 26> H       -2.748166   -0.391240    2.356043
| 27> C       -2.991181   -0.935299    1.439450
| 28> H       -2.510085   -1.921339   -1.468610
| 29> H       -4.080420   -1.063528   -1.342825
| 30> H       -4.343438    1.343207   -0.001601
| 31> H       -3.002541    2.121837   -0.888321
| 32> H       -2.759672   -0.400400   -2.350803
| 33> H       -3.002807    2.124611    0.883073
| 34> C        0.000649    1.940082   -0.001490
| 35> O        0.001240    3.110505   -0.001979
| 36> Cl      -0.000683   -2.266357   -0.002005
| 37> *
| 38>
| 39> %maxcore 5000
| 40>
| 41> %pal
| 42> nprocs = 24
| 43> end
| 44>
| 45>
| 46>                          ****END OF INPUT****

CARTESIAN COORDINATES (ANGSTROEM)
---------------------------------
  Ir     0.000009    0.119441   -0.001134
  P      2.313164   -0.026854    0.000864
  C      3.266155    1.538041    0.001301
  C      2.990776   -0.938546    1.437922
  H      4.076753   -1.056364    1.355244
  H      4.080827   -1.059585   -1.345638
  H      2.508332   -1.918605    1.474823
  H      2.511934   -1.920062   -1.470843
  H      3.000883    2.123603    0.885753
  H      2.748975   -0.395301    2.355327
  C      2.995346   -0.940504   -1.432774
  H      4.343510    1.342437    0.003886
  H      2.757870   -0.397739   -2.351580
  H      3.004825    2.121649   -0.885628
  P     -2.313239   -0.026297    0.000821
  C     -3.266059    1.538685   -0.001751
  C     -2.995240   -0.942628   -1.431183
  H     -2.509974   -1.915937    1.477317
  H     -4.077346   -1.051885    1.357522
  H     -2.748166   -0.391240    2.356043
  C     -2.991181   -0.935299    1.439450
  H     -2.510085   -1.921339   -1.468610
  H     -4.080420   -1.063528   -1.342825
  H     -4.343438    1.343207   -0.001601
  H     -3.002541    2.121837   -0.888321
  H     -2.759672   -0.400400   -2.350803
  H     -3.002807    2.124611    0.883073
  C      0.000649    1.940082   -0.001490
  O      0.001240    3.110505   -0.001979
  Cl    -0.000683   -2.266357   -0.002005

 Total Charge           Charge          ....    0
 Multiplicity           Mult            ....    1
 Number of Electrons    NEL             ....  132
 Basis Dimension        Dim             ....  811

ORBITAL ENERGIES
----------------

  NO   OCC          E(Eh)            E(eV)
   0   2.0000    -102.829775     -2798.1404
   1   2.0000     -78.293107     -2130.4638
   2   2.0000     -78.293097     -2130.4635
   3   2.0000     -19.767870      -537.9111
   4   2.0000     -10.721479      -291.7463
   5   2.0000     -10.621504      -289.0258
   6   2.0000     -10.621502      -289.0258
   7   2.0000     -10.615348      -288.8583
   8   2.0000     -10.615336      -288.8580
   9   2.0000     -10.615330      -288.8578
  10   2.0000     -10.615289      -288.8567
  11   2.0000      -9.835715      -267.6434
  12   2.0000      -7.473082      -203.3529
  13   2.0000      -7.471167      -203.3008
  14   2.0000      -7.470782      -203.2903
  15   2.0000      -6.959908      -189.3887
  16   2.0000      -6.959898      -189.3885
  17   2.0000      -5.011428      -136.3679
  18   2.0000      -5.011418      -136.3676
  19   2.0000      -5.011181      -136.3612
  20   2.0000      -5.011171      -136.3609
  21   2.0000      -5.009126      -136.3052
  22   2.0000      -5.009116      -136.3050
  23   2.0000      -3.884779      -105.7102
  24   2.0000      -2.175640       -59.2022
  25   2.0000      -2.164202       -58.8909
  26   2.0000      -2.138612       -58.1946
  27   2.0000      -1.238442       -33.6997
  28   2.0000      -0.892002       -24.2726
  29   2.0000      -0.888774       -24.1848
  30   2.0000      -0.850587       -23.1457
  31   2.0000      -0.808920       -22.0118
  32   2.0000      -0.808173       -21.9915
  33   2.0000      -0.804322       -21.8867
  34   2.0000      -0.804276       -21.8855
  35   2.0000      -0.654953       -17.8222
  36   2.0000      -0.635447       -17.2914
  37   2.0000      -0.626456       -17.0467
  38   2.0000      -0.541956       -14.7474
  39   2.0000      -0.524809       -14.2808
  40   2.0000      -0.521960       -14.2032
  41   2.0000      -0.511872       -13.9288
  42   2.0000      -0.508068       -13.8252
  43   2.0000      -0.506649       -13.7866
  44   2.0000      -0.502786       -13.6815
  45   2.0000      -0.499448       -13.5907
  46   2.0000      -0.496599       -13.5131
  47   2.0000      -0.480594       -13.0776
  48   2.0000      -0.477609       -12.9964
  49   2.0000      -0.477486       -12.9931
  50   2.0000      -0.474633       -12.9154
  51   2.0000      -0.461379       -12.5548
  52   2.0000      -0.461030       -12.5453
  53   2.0000      -0.413456       -11.2507
  54   2.0000      -0.408562       -11.1175
  55   2.0000      -0.405731       -11.0405
  56   2.0000      -0.403683       -10.9848
  57   2.0000      -0.401584       -10.9277
  58   2.0000      -0.356552        -9.7023
  59   2.0000      -0.355829        -9.6826
  60   2.0000      -0.342566        -9.3217
  61   2.0000      -0.307800        -8.3757
  62   2.0000      -0.283224        -7.7069
  63   2.0000      -0.280564        -7.6345
  64   2.0000      -0.269393        -7.3306
  65   2.0000      -0.252898        -6.8817
  66   0.0000       0.007768         0.2114
  67   0.0000       0.023423         0.6374
  68   0.0000       0.024363         0.6630
  69   0.0000       0.034398         0.9360
  70   0.0000       0.049756         1.3539

MULLIKEN ATOMIC CHARGES
-----------------------
   0 Ir:    0.015309
   1 P :    0.800892
   2 C :   -0.450102
   3 C :   -0.474565
   4 H :    0.151318
   5 H :    0.151302
   6 H :    0.135475
   7 H :    0.135398
   8 H :    0.098234
   9 H :    0.076690
  10 C :   -0.474676
  11 H :    0.140795
  12 H :    0.076451
  13 H :    0.098150
  14 P :    0.800871
  15 C :   -0.450167
  16 C :   -0.474817
  17 H :    0.135323
  18 H :    0.151361
  19 H :    0.076707
  20 C :   -0.474314
  21 H :    0.135489
  22 H :    0.151269
  23 H :    0.140806
  24 H :    0.098132
  25 H :    0.076520
  26 H :    0.098313
  27 C :    0.297783
  28 O :   -0.523317
  29 Cl:   -0.720633
Sum of atomic charges:   -0.0000000

LOEWDIN ATOMIC CHARGES
----------------------
   0 Ir:    0.331851
   1 P :    0.732540
   2 C :   -0.024716
   3 C :   -0.028454
   4 H :   -0.047760
   5 H :   -0.047749
   6 H :   -0.080473
   7 H :   -0.080560
   8 H :   -0.049520
   9 H :   -0.051614
  10 C :   -0.028424
  11 H :   -0.048175
  12 H :   -0.051593
  13 H :   -0.049453
  14 P :    0.732515
  15 C :   -0.024711
  16 C :   -0.028540
  17 H :   -0.080293
  18 H :   -0.047767
  19 H :   -0.051645
  20 C :   -0.028404
  21 H :   -0.080907
  22 H :   -0.047747
  23 H :   -0.048178
  24 H :   -0.049501
  25 H :   -0.051565
  26 H :   -0.049485
  27 C :   -0.471473
  28 O :   -0.003478
  29 Cl:   -0.144723

  Mayer bond orders larger than 0.100000
B(  0-Ir,  1-P ) :   0.7817 B(  0-Ir, 14-P ) :   0.7811 B(  0-Ir, 27-C ) :   1.8281
B(  0-Ir, 28-O ) :   0.1664 B(  0-Ir, 29-Cl) :   0.3687 B(  1-P ,  2-C ) :   0.7267
B(  1-P ,  3-C ) :   0.8222 B(  1-P , 10-C ) :   0.8228 B(  1-P , 29-Cl) :   0.1752
B(  2-C ,  8-H ) :   1.0146 B(  2-C , 11-H ) :   1.0099 B(  2-C , 13-H ) :   1.0147
B(  3-C ,  4-H ) :   0.9895 B(  3-C ,  6-H ) :   0.9984 B(  3-C ,  9-H ) :   1.0313
B(  5-H , 10-C ) :   0.9896 B(  7-H , 10-C ) :   0.9983 B( 10-C , 12-H ) :   1.0313
B( 14-P , 15-C ) :   0.7267 B( 14-P , 16-C ) :   0.8225 B( 14-P , 20-C ) :   0.8225
B( 14-P , 29-Cl) :   0.1757 B( 15-C , 23-H ) :   1.0098 B( 15-C , 24-H ) :   1.0147
B( 15-C , 26-H ) :   1.0146 B( 16-C , 21-H ) :   0.9984 B( 16-C , 22-H ) :   0.9896
B( 16-C , 25-H ) :   1.0315 B( 17-H , 20-C ) :   0.9983 B( 18-H , 20-C ) :   0.9895
B( 19-H , 20-C ) :   1.0312 B( 27-C , 28-O ) :   1.9550

MP2 TOTAL ENERGY:    -1599.670644475 Eh
Dispersion correction           -0.037367918
FINAL SINGLE POINT ENERGY     -1599.708012393311

DIPOLE MOMENT
-------------
                                X             Y             Z
Electronic contribution:      0.00111      16.13119      -0.17778
Nuclear contribution   :     -0.00090     -15.69990       0.18198
                        -----------------------------------------
Total Dipole Moment    :      0.00021       0.43129       0.00420
                        -----------------------------------------
Magnitude (a.u.)       :      0.43131
Magnitude (Debye)      :      1.09630

Rotational constants in cm-1:     0.025294     0.012430     0.009680
Rotational constants in MHz :   758.298673   372.651784   290.199928

                             ****ORCA TERMINATED NORMALLY****
TOTAL RUN TIME: 0 days 0 hours 1 minutes 44 seconds 615 msec
