                         Program Version 4.2.0 -  RELEASE  -
|  1> #
|  2> # MOR15_ed28 ri-B2PLYP-D3BJ/Def2-TZVPPD
|  3> #
|  4> ! rijk ri-b2plyp d3bj def2-tzvppd def2/jk def2-tzvppd/c grid4 nofinalgrid
|  5>
|  6> *xyz 0 1
|  7> P        2.231289   -0.430274   -0.463190
|  8> P       -2.231227    0.430230   -0.463237
|  9> C        0.601806    0.475539   -0.398801
| 10> C       -0.601746   -0.475582   -0.398812
| 11> H        0.558406    1.125089   -1.282007
| 12> H        0.584231    1.127683    0.485308
| 13> H       -0.558397   -1.125071   -1.282069
| 14> H       -0.584133   -1.127767    0.485258
| 15> C       -2.297387    1.057835    1.283006
| 16> H       -3.294023    1.464895    1.482076
| 17> H       -1.575039    1.869076    1.414857
| 18> H       -2.084239    0.266904    2.013068
| 19> C       -3.365229   -1.028103   -0.282748
| 20> H       -3.089031   -1.663694    0.567640
| 21> H       -3.336618   -1.627593   -1.198231
| 22> H       -4.392612   -0.676718   -0.143291
| 23> C        3.365219    1.028123   -0.282780
| 24> H        4.392633    0.676869   -0.143242
| 25> H        3.088901    1.663766    0.567523
| 26> H        3.336575    1.627522   -1.198328
| 27> C        2.297280   -1.057763    1.283073
| 28> H        1.574883   -1.868971    1.414841
| 29> H        2.084009   -0.266765    2.013028
| 30> H        3.293857   -1.464863    1.482348
| 31> *
| 32>
| 33> %maxcore 5000
| 34>
| 35> %pal
| 36> nprocs = 24
| 37> end
| 38>
| 39>
| 40>                          ****END OF INPUT****

CARTESIAN COORDINATES (ANGSTROEM)
---------------------------------
  P      2.231289   -0.430274   -0.463190
  P     -2.231227    0.430230   -0.463237
  C      0.601806    0.475539   -0.398801
  C     -0.601746   -0.475582   -0.398812
  H      0.558406    1.125089   -1.282007
  H      0.584231    1.127683    0.485308
  H     -0.558397   -1.125071   -1.282069
  H     -0.584133   -1.127767    0.485258
  C     -2.297387    1.057835    1.283006
  H     -3.294023    1.464895    1.482076
  H     -1.575039    1.869076    1.414857
  H     -2.084239    0.266904    2.013068
  C     -3.365229   -1.028103   -0.282748
  H     -3.089031   -1.663694    0.567640
  H     -3.336618   -1.627593   -1.198231
  H     -4.392612   -0.676718   -0.143291
  C      3.365219    1.028123   -0.282780
  H      4.392633    0.676869   -0.143242
  H      3.088901    1.663766    0.567523
  H      3.336575    1.627522   -1.198328
  C      2.297280   -1.057763    1.283073
  H      1.574883   -1.868971    1.414841
  H      2.084009   -0.266765    2.013028
  H      3.293857   -1.464863    1.482348

 Total Charge           Charge          ....    0
 Multiplicity           Mult            ....    1
 Number of Electrons    NEL             ....   82
 Basis Dimension        Dim             ....  590

ORBITAL ENERGIES
----------------

  NO   OCC          E(Eh)            E(eV)
   0   2.0000     -78.251396     -2129.3287
   1   2.0000     -78.251393     -2129.3287
   2   2.0000     -10.615975      -288.8754
   3   2.0000     -10.615599      -288.8651
   4   2.0000     -10.608007      -288.6585
   5   2.0000     -10.608006      -288.6585
   6   2.0000     -10.607569      -288.6466
   7   2.0000     -10.607569      -288.6466
   8   2.0000      -6.919598      -188.2918
   9   2.0000      -6.919597      -188.2918
  10   2.0000      -4.970561      -135.2558
  11   2.0000      -4.970560      -135.2558
  12   2.0000      -4.970470      -135.2534
  13   2.0000      -4.970469      -135.2533
  14   2.0000      -4.967341      -135.1682
  15   2.0000      -4.967340      -135.1682
  16   2.0000      -0.900336       -24.4994
  17   2.0000      -0.856522       -23.3071
  18   2.0000      -0.824005       -22.4223
  19   2.0000      -0.791088       -21.5266
  20   2.0000      -0.790814       -21.5191
  21   2.0000      -0.722163       -19.6511
  22   2.0000      -0.610043       -16.6001
  23   2.0000      -0.602393       -16.3919
  24   2.0000      -0.534408       -14.5420
  25   2.0000      -0.499307       -13.5868
  26   2.0000      -0.496043       -13.4980
  27   2.0000      -0.493265       -13.4224
  28   2.0000      -0.489108       -13.3093
  29   2.0000      -0.465276       -12.6608
  30   2.0000      -0.463463       -12.6115
  31   2.0000      -0.462944       -12.5973
  32   2.0000      -0.462093       -12.5742
  33   2.0000      -0.436657       -11.8820
  34   2.0000      -0.425493       -11.5783
  35   2.0000      -0.414891       -11.2898
  36   2.0000      -0.378473       -10.2988
  37   2.0000      -0.375679       -10.2227
  38   2.0000      -0.341370        -9.2891
  39   2.0000      -0.272961        -7.4277
  40   2.0000      -0.269902        -7.3444
  41   0.0000       0.031202         0.8491
  42   0.0000       0.039228         1.0675
  43   0.0000       0.045186         1.2296
  44   0.0000       0.048553         1.3212
  45   0.0000       0.056695         1.5427

MULLIKEN ATOMIC CHARGES
-----------------------
   0 P :   -0.077340
   1 P :   -0.077272
   2 C :   -0.064592
   3 C :   -0.065569
   4 H :    0.116114
   5 H :    0.059165
   6 H :    0.115965
   7 H :    0.059237
   8 C :   -0.325929
   9 H :    0.119195
  10 H :    0.072419
  11 H :    0.115795
  12 C :   -0.344112
  13 H :    0.111456
  14 H :    0.106993
  15 H :    0.111317
  16 C :   -0.344064
  17 H :    0.111315
  18 H :    0.111448
  19 H :    0.106974
  20 C :   -0.325890
  21 H :    0.072383
  22 H :    0.115805
  23 H :    0.119189
Sum of atomic charges:   -0.0000000

LOEWDIN ATOMIC CHARGES
----------------------
   0 P :    0.924517
   1 P :    0.924524
   2 C :   -0.298975
   3 C :   -0.298973
   4 H :   -0.034516
   5 H :   -0.038742
   6 H :   -0.034517
   7 H :   -0.038744
   8 C :   -0.080932
   9 H :   -0.065719
  10 H :   -0.072125
  11 H :   -0.055788
  12 C :   -0.086592
  13 H :   -0.059137
  14 H :   -0.065816
  15 H :   -0.066179
  16 C :   -0.086588
  17 H :   -0.066178
  18 H :   -0.059145
  19 H :   -0.065811
  20 C :   -0.080940
  21 H :   -0.072129
  22 H :   -0.055786
  23 H :   -0.065712

  Mayer bond orders larger than 0.100000
B(  0-P ,  2-C ) :   0.7068 B(  0-P ,  3-C ) :   0.2285 B(  0-P , 16-C ) :   0.8735
B(  0-P , 20-C ) :   0.8682 B(  1-P ,  2-C ) :   0.2280 B(  1-P ,  3-C ) :   0.7073
B(  1-P ,  8-C ) :   0.8682 B(  1-P , 12-C ) :   0.8736 B(  2-C ,  3-C ) :   0.9032
B(  2-C ,  4-H ) :   0.9927 B(  2-C ,  5-H ) :   0.9668 B(  3-C ,  6-H ) :   0.9928
B(  3-C ,  7-H ) :   0.9667 B(  8-C ,  9-H ) :   1.0076 B(  8-C , 10-H ) :   1.0106
B(  8-C , 11-H ) :   0.9738 B( 12-C , 13-H ) :   0.9694 B( 12-C , 14-H ) :   1.0128
B( 12-C , 15-H ) :   1.0130 B( 16-C , 17-H ) :   1.0130 B( 16-C , 18-H ) :   0.9693
B( 16-C , 19-H ) :   1.0128 B( 20-C , 21-H ) :   1.0106 B( 20-C , 22-H ) :   0.9737
B( 20-C , 23-H ) :   1.0077

MP2 TOTAL ENERGY:     -920.622167654 Eh
Dispersion correction           -0.019942850
FINAL SINGLE POINT ENERGY      -920.642110503934

DIPOLE MOMENT
-------------
                                X             Y             Z
Electronic contribution:      0.00066      -0.00041      -7.05394
Nuclear contribution   :     -0.00067       0.00041       7.75547
                        -----------------------------------------
Total Dipole Moment    :     -0.00001       0.00001       0.70152
                        -----------------------------------------
Magnitude (a.u.)       :      0.70152
Magnitude (Debye)      :      1.78313

Rotational constants in cm-1:     0.093884     0.018404     0.018105
Rotational constants in MHz :  2814.581921   551.745538   542.775536

                             ****ORCA TERMINATED NORMALLY****
TOTAL RUN TIME: 0 days 0 hours 0 minutes 24 seconds 507 msec
