                         Program Version 4.2.0 -  RELEASE  -
|  1> #
|  2> # MOR24_pme3 ri-B2PLYP-D3BJ/Def2-TZVPPD
|  3> #
|  4> ! rijk ri-b2plyp d3bj def2-tzvppd def2/jk def2-tzvppd/c grid4 nofinalgrid
|  5>
|  6> *xyz 0 1
|  7> P        0.000014   -0.000022   -0.608033
|  8> C        1.496142   -0.644859    0.281510
|  9> H        1.381991   -0.595756    1.371521
| 10> H        2.374450   -0.059896   -0.010082
| 11> H        1.674284   -1.684941   -0.010215
| 12> C       -0.189596    1.618079    0.281483
| 13> H       -0.175035    1.494773    1.371519
| 14> H       -1.135286    2.086341   -0.010098
| 15> H        0.622176    2.292253   -0.010285
| 16> C       -1.306577   -0.973225    0.281488
| 17> H       -1.206743   -0.899098    1.371498
| 18> H       -1.239562   -2.026308   -0.010273
| 19> H       -2.296301   -0.607013   -0.009976
| 20> *
| 21>
| 22> %maxcore 5000
| 23>
| 24> %pal
| 25> nprocs = 24
| 26> end
| 27>
| 28>
| 29>                          ****END OF INPUT****

CARTESIAN COORDINATES (ANGSTROEM)
---------------------------------
  P      0.000014   -0.000022   -0.608033
  C      1.496142   -0.644859    0.281510
  H      1.381991   -0.595756    1.371521
  H      2.374450   -0.059896   -0.010082
  H      1.674284   -1.684941   -0.010215
  C     -0.189596    1.618079    0.281483
  H     -0.175035    1.494773    1.371519
  H     -1.135286    2.086341   -0.010098
  H      0.622176    2.292253   -0.010285
  C     -1.306577   -0.973225    0.281488
  H     -1.206743   -0.899098    1.371498
  H     -1.239562   -2.026308   -0.010273
  H     -2.296301   -0.607013   -0.009976

 Total Charge           Charge          ....    0
 Multiplicity           Mult            ....    1
 Number of Electrons    NEL             ....   42
 Basis Dimension        Dim             ....  312

ORBITAL ENERGIES
----------------

  NO   OCC          E(Eh)            E(eV)
   0   2.0000     -78.251512     -2129.3319
   1   2.0000     -10.606259      -288.6110
   2   2.0000     -10.606258      -288.6110
   3   2.0000     -10.606250      -288.6107
   4   2.0000      -6.919383      -188.2860
   5   2.0000      -4.970356      -135.2503
   6   2.0000      -4.970355      -135.2502
   7   2.0000      -4.967129      -135.1625
   8   2.0000      -0.865906       -23.5625
   9   2.0000      -0.789251       -21.4766
  10   2.0000      -0.789248       -21.4765
  11   2.0000      -0.604753       -16.4562
  12   2.0000      -0.504051       -13.7159
  13   2.0000      -0.489341       -13.3157
  14   2.0000      -0.489330       -13.3154
  15   2.0000      -0.461360       -12.5543
  16   2.0000      -0.461356       -12.5541
  17   2.0000      -0.448049       -12.1920
  18   2.0000      -0.377387       -10.2692
  19   2.0000      -0.377377       -10.2690
  20   2.0000      -0.270295        -7.3551
  21   0.0000       0.035855         0.9757
  22   0.0000       0.050340         1.3698
  23   0.0000       0.050343         1.3699
  24   0.0000       0.072146         1.9632
  25   0.0000       0.097391         2.6501

MULLIKEN ATOMIC CHARGES
-----------------------
   0 P :    0.046401
   1 C :   -0.307020
   2 H :    0.098393
   3 H :    0.096494
   4 H :    0.096453
   5 C :   -0.306156
   6 H :    0.098582
   7 H :    0.096222
   8 H :    0.096044
   9 C :   -0.306677
  10 H :    0.098590
  11 H :    0.096234
  12 H :    0.096439
Sum of atomic charges:    0.0000000

LOEWDIN ATOMIC CHARGES
----------------------
   0 P :    0.871399
   1 C :   -0.095593
   2 H :   -0.060252
   3 H :   -0.067312
   4 H :   -0.067312
   5 C :   -0.095600
   6 H :   -0.060235
   7 H :   -0.067310
   8 H :   -0.067320
   9 C :   -0.095580
  10 H :   -0.060250
  11 H :   -0.067322
  12 H :   -0.067312

  Mayer bond orders larger than 0.100000
B(  0-P ,  1-C ) :   0.8827 B(  0-P ,  5-C ) :   0.8824 B(  0-P ,  9-C ) :   0.8826
B(  1-C ,  2-H ) :   0.9725 B(  1-C ,  3-H ) :   1.0132 B(  1-C ,  4-H ) :   1.0132
B(  5-C ,  6-H ) :   0.9720 B(  5-C ,  7-H ) :   1.0134 B(  5-C ,  8-H ) :   1.0135
B(  9-C , 10-H ) :   0.9723 B(  9-C , 11-H ) :   1.0135 B(  9-C , 12-H ) :   1.0132

MP2 TOTAL ENERGY:     -460.910510832 Eh
Dispersion correction           -0.008164388
FINAL SINGLE POINT ENERGY      -460.918675219893

DIPOLE MOMENT
-------------
                                X             Y             Z
Electronic contribution:      0.00004      -0.00037      -4.31241
Nuclear contribution   :     -0.00004       0.00039       4.80319
                        -----------------------------------------
Total Dipole Moment    :      0.00000       0.00002       0.49078
                        -----------------------------------------
Magnitude (a.u.)       :      0.49078
Magnitude (Debye)      :      1.24746

Rotational constants in cm-1:     0.191522     0.191510     0.123399
Rotational constants in MHz :  5741.693239  5741.320508  3699.411170

                             ****ORCA TERMINATED NORMALLY****
TOTAL RUN TIME: 0 days 0 hours 0 minutes 7 seconds 297 msec
