                         Program Version 4.2.0 -  RELEASE  -
|  1> #
|  2> # MOR27_pr07 ri-B2PLYP-D3BJ/Def2-TZVPPD
|  3> #
|  4> ! rijk ri-b2plyp d3bj def2-tzvppd def2/jk def2-tzvppd/c grid4 nofinalgrid
|  5>
|  6> *xyz 0 1
|  7> W        0.000153   -0.023654    0.145460
|  8> C       -0.000249    1.935753    0.684175
|  9> O       -0.000602    3.038332    1.069126
| 10> C        0.000042    0.319115   -1.817511
| 11> O        0.000023    0.516387   -2.971186
| 12> C        0.000186   -2.057627    0.000209
| 13> O        0.000001   -3.223688    0.015338
| 14> H       -0.422672   -0.342863    1.975704
| 15> H        0.423087   -0.343070    1.976292
| 16> P        2.499044    0.051189    0.053466
| 17> C        3.398497   -0.579400    1.568536
| 18> H        4.468576   -0.564735    1.332934
| 19> C        3.357030   -0.829661   -1.379272
| 20> H        3.371948   -0.051400   -2.154068
| 21> C        3.157630    1.804169   -0.095931
| 22> H        2.704128    2.295578    0.773940
| 23> C       -3.158190    1.803853   -0.098051
| 24> P       -2.499342    0.051185    0.053494
| 25> H       -4.468329   -0.563916    1.334439
| 26> H       -2.705915    2.296277    0.771888
| 27> C       -3.357947   -0.831337   -1.377937
| 28> H       -3.374541   -0.053484   -2.153122
| 29> C        4.805704   -1.269244   -1.108536
| 30> H        5.254950   -1.620204   -2.045252
| 31> H        4.835898   -2.103732   -0.400453
| 32> H        5.434431   -0.467933   -0.716341
| 33> C        2.560788   -2.016752   -1.935473
| 34> H        3.061937   -2.400142   -2.832615
| 35> H        1.542966   -1.732188   -2.204810
| 36> H        2.502084   -2.833493   -1.209948
| 37> C        4.680481    1.979802   -0.012340
| 38> H        4.916239    3.046506    0.083978
| 39> H        5.169829    1.620688   -0.922848
| 40> H        5.123446    1.463622    0.844533
| 41> C        2.617881    2.501599   -1.352306
| 42> H        2.906367    3.558914   -1.336615
| 43> H        1.529775    2.443192   -1.410983
| 44> H        3.032951    2.058398   -2.264167
| 45> C        3.156179    0.325190    2.783070
| 46> H        3.624905   -0.113517    3.671755
| 47> H        2.084721    0.431553    2.987984
| 48> H        3.570907    1.327076    2.642068
| 49> C        2.983676   -2.024266    1.875196
| 50> H        3.139448   -2.690345    1.021876
| 51> H        1.922767   -2.073885    2.140278
| 52> H        3.565975   -2.409562    2.720613
| 53> C       -4.681242    1.978525   -0.016373
| 54> H       -5.169268    1.617830   -0.926977
| 55> H       -4.917927    3.045167    0.078302
| 56> H       -5.124772    1.463082    0.840662
| 57> C       -2.617453    2.500423   -1.354472
| 58> H       -3.030239    2.055355   -2.266464
| 59> C       -2.982294   -2.021525    1.878658
| 60> H       -1.529170    2.443643   -1.411239
| 61> H       -2.907637    3.557302   -1.340680
| 62> C       -3.156106    0.329464    2.782654
| 63> H       -1.921474   -2.069894    2.144316
| 64> H       -3.564665   -2.406148    2.724324
| 65> H       -3.137027   -2.688908    1.026165
| 66> C       -3.398186   -0.577432    1.569777
| 67> H       -3.622276   -0.109074    3.672772
| 68> H       -3.573608    1.330095    2.640827
| 69> H       -2.084555    0.438855    2.985621
| 70> C       -4.805869   -1.272290   -1.105425
| 71> H       -5.255612   -1.624537   -2.041419
| 72> H       -5.435110   -0.471325   -0.713333
| 73> H       -4.834472   -2.106207   -0.396602
| 74> C       -2.561058   -2.017888   -1.934324
| 75> H       -2.500954   -2.834229   -1.208460
| 76> H       -1.543733   -1.732464   -2.204653
| 77> H       -3.062606   -2.402180   -2.830854
| 78> *
| 79>
| 80> %maxcore 5000
| 81>
| 82> %pal
| 83> nprocs = 24
| 84> end
| 85>
| 86>
| 87>                          ****END OF INPUT****

CARTESIAN COORDINATES (ANGSTROEM)
---------------------------------
  W      0.000153   -0.023654    0.145460
  C     -0.000249    1.935753    0.684175
  O     -0.000602    3.038332    1.069126
  C      0.000042    0.319115   -1.817511
  O      0.000023    0.516387   -2.971186
  C      0.000186   -2.057627    0.000209
  O      0.000001   -3.223688    0.015338
  H     -0.422672   -0.342863    1.975704
  H      0.423087   -0.343070    1.976292
  P      2.499044    0.051189    0.053466
  C      3.398497   -0.579400    1.568536
  H      4.468576   -0.564735    1.332934
  C      3.357030   -0.829661   -1.379272
  H      3.371948   -0.051400   -2.154068
  C      3.157630    1.804169   -0.095931
  H      2.704128    2.295578    0.773940
  C     -3.158190    1.803853   -0.098051
  P     -2.499342    0.051185    0.053494
  H     -4.468329   -0.563916    1.334439
  H     -2.705915    2.296277    0.771888
  C     -3.357947   -0.831337   -1.377937
  H     -3.374541   -0.053484   -2.153122
  C      4.805704   -1.269244   -1.108536
  H      5.254950   -1.620204   -2.045252
  H      4.835898   -2.103732   -0.400453
  H      5.434431   -0.467933   -0.716341
  C      2.560788   -2.016752   -1.935473
  H      3.061937   -2.400142   -2.832615
  H      1.542966   -1.732188   -2.204810
  H      2.502084   -2.833493   -1.209948
  C      4.680481    1.979802   -0.012340
  H      4.916239    3.046506    0.083978
  H      5.169829    1.620688   -0.922848
  H      5.123446    1.463622    0.844533
  C      2.617881    2.501599   -1.352306
  H      2.906367    3.558914   -1.336615
  H      1.529775    2.443192   -1.410983
  H      3.032951    2.058398   -2.264167
  C      3.156179    0.325190    2.783070
  H      3.624905   -0.113517    3.671755
  H      2.084721    0.431553    2.987984
  H      3.570907    1.327076    2.642068
  C      2.983676   -2.024266    1.875196
  H      3.139448   -2.690345    1.021876
  H      1.922767   -2.073885    2.140278
  H      3.565975   -2.409562    2.720613
  C     -4.681242    1.978525   -0.016373
  H     -5.169268    1.617830   -0.926977
  H     -4.917927    3.045167    0.078302
  H     -5.124772    1.463082    0.840662
  C     -2.617453    2.500423   -1.354472
  H     -3.030239    2.055355   -2.266464
  C     -2.982294   -2.021525    1.878658
  H     -1.529170    2.443643   -1.411239
  H     -2.907637    3.557302   -1.340680
  C     -3.156106    0.329464    2.782654
  H     -1.921474   -2.069894    2.144316
  H     -3.564665   -2.406148    2.724324
  H     -3.137027   -2.688908    1.026165
  C     -3.398186   -0.577432    1.569777
  H     -3.622276   -0.109074    3.672772
  H     -3.573608    1.330095    2.640827
  H     -2.084555    0.438855    2.985621
  C     -4.805869   -1.272290   -1.105425
  H     -5.255612   -1.624537   -2.041419
  H     -5.435110   -0.471325   -0.713333
  H     -4.834472   -2.106207   -0.396602
  C     -2.561058   -2.017888   -1.934324
  H     -2.500954   -2.834229   -1.208460
  H     -1.543733   -1.732464   -2.204653
  H     -3.062606   -2.402180   -2.830854

 Total Charge           Charge          ....    0
 Multiplicity           Mult            ....    1
 Number of Electrons    NEL             ....  238
 Basis Dimension        Dim             .... 1800

ORBITAL ENERGIES
----------------

  NO   OCC          E(Eh)            E(eV)
   0   2.0000     -78.276160     -2130.0026
   1   2.0000     -78.276136     -2130.0020
   2   2.0000     -19.773269      -538.0580
   3   2.0000     -19.771436      -538.0081
   4   2.0000     -19.757676      -537.6337
   5   2.0000     -10.709139      -291.4105
   6   2.0000     -10.708155      -291.3837
   7   2.0000     -10.699179      -291.1395
   8   2.0000     -10.625816      -289.1431
   9   2.0000     -10.625798      -289.1427
  10   2.0000     -10.625419      -289.1324
  11   2.0000     -10.625391      -289.1316
  12   2.0000     -10.623844      -289.0895
  13   2.0000     -10.623833      -289.0892
  14   2.0000     -10.611071      -288.7419
  15   2.0000     -10.611069      -288.7419
  16   2.0000     -10.610052      -288.7142
  17   2.0000     -10.610038      -288.7138
  18   2.0000     -10.608861      -288.6818
  19   2.0000     -10.608846      -288.6814
  20   2.0000     -10.608409      -288.6695
  21   2.0000     -10.608390      -288.6690
  22   2.0000     -10.601187      -288.4730
  23   2.0000     -10.601186      -288.4729
  24   2.0000     -10.598103      -288.3890
  25   2.0000     -10.598096      -288.3888
  26   2.0000      -6.942731      -188.9213
  27   2.0000      -6.942708      -188.9207
  28   2.0000      -4.993974      -135.8929
  29   2.0000      -4.993967      -135.8927
  30   2.0000      -4.993951      -135.8923
  31   2.0000      -4.993944      -135.8921
  32   2.0000      -4.991808      -135.8340
  33   2.0000      -4.991785      -135.8334
  34   2.0000      -3.085509       -83.9610
  35   2.0000      -1.675383       -45.5895
  36   2.0000      -1.674506       -45.5656
  37   2.0000      -1.664093       -45.2823
  38   2.0000      -1.242297       -33.8046
  39   2.0000      -1.241463       -33.7819
  40   2.0000      -1.227950       -33.4142
  41   2.0000      -0.934514       -25.4294
  42   2.0000      -0.934022       -25.4160
  43   2.0000      -0.900562       -24.5055
  44   2.0000      -0.900518       -24.5043
  45   2.0000      -0.897417       -24.4199
  46   2.0000      -0.897381       -24.4190
  47   2.0000      -0.796152       -21.6644
  48   2.0000      -0.795959       -21.6591
  49   2.0000      -0.793388       -21.5892
  50   2.0000      -0.792983       -21.5782
  51   2.0000      -0.785655       -21.3788
  52   2.0000      -0.785369       -21.3710
  53   2.0000      -0.750081       -20.4107
  54   2.0000      -0.747430       -20.3386
  55   2.0000      -0.678608       -18.4659
  56   2.0000      -0.678224       -18.4554
  57   2.0000      -0.677400       -18.4330
  58   2.0000      -0.676588       -18.4109
  59   2.0000      -0.657854       -17.9011
  60   2.0000      -0.628824       -17.1112
  61   2.0000      -0.626937       -17.0598
  62   2.0000      -0.602278       -16.3888
  63   2.0000      -0.597574       -16.2608
  64   2.0000      -0.571856       -15.5610
  65   2.0000      -0.547310       -14.8931
  66   2.0000      -0.545732       -14.8501
  67   2.0000      -0.543495       -14.7893
  68   2.0000      -0.539722       -14.6866
  69   2.0000      -0.531523       -14.4635
  70   2.0000      -0.530774       -14.4431
  71   2.0000      -0.523422       -14.2430
  72   2.0000      -0.511765       -13.9258
  73   2.0000      -0.511476       -13.9180
  74   2.0000      -0.509081       -13.8528
  75   2.0000      -0.505807       -13.7637
  76   2.0000      -0.495995       -13.4967
  77   2.0000      -0.494958       -13.4685
  78   2.0000      -0.494413       -13.4537
  79   2.0000      -0.490112       -13.3366
  80   2.0000      -0.487502       -13.2656
  81   2.0000      -0.487328       -13.2609
  82   2.0000      -0.482241       -13.1225
  83   2.0000      -0.476016       -12.9530
  84   2.0000      -0.473952       -12.8969
  85   2.0000      -0.472224       -12.8499
  86   2.0000      -0.468099       -12.7376
  87   2.0000      -0.464133       -12.6297
  88   2.0000      -0.464085       -12.6284
  89   2.0000      -0.461470       -12.5572
  90   2.0000      -0.459722       -12.5097
  91   2.0000      -0.456930       -12.4337
  92   2.0000      -0.456066       -12.4102
  93   2.0000      -0.448948       -12.2165
  94   2.0000      -0.448715       -12.2102
  95   2.0000      -0.447322       -12.1722
  96   2.0000      -0.446094       -12.1388
  97   2.0000      -0.440313       -11.9815
  98   2.0000      -0.416019       -11.3204
  99   2.0000      -0.415665       -11.3108
 100   2.0000      -0.415467       -11.3054
 101   2.0000      -0.413725       -11.2580
 102   2.0000      -0.410675       -11.1750
 103   2.0000      -0.409396       -11.1402
 104   2.0000      -0.405185       -11.0256
 105   2.0000      -0.403880       -10.9901
 106   2.0000      -0.400131       -10.8881
 107   2.0000      -0.400042       -10.8857
 108   2.0000      -0.398627       -10.8472
 109   2.0000      -0.398338       -10.8393
 110   2.0000      -0.350836        -9.5467
 111   2.0000      -0.348372        -9.4797
 112   2.0000      -0.348352        -9.4791
 113   2.0000      -0.346182        -9.4201
 114   2.0000      -0.344264        -9.3679
 115   2.0000      -0.298714        -8.1284
 116   2.0000      -0.224515        -6.1094
 117   2.0000      -0.220578        -6.0022
 118   2.0000      -0.214270        -5.8306
 119   0.0000       0.019345         0.5264
 120   0.0000       0.022722         0.6183
 121   0.0000       0.025064         0.6820
 122   0.0000       0.027908         0.7594
 123   0.0000       0.032824         0.8932

MULLIKEN ATOMIC CHARGES
-----------------------
   0 W :   -1.983951
   1 C :    0.956353
   2 O :   -0.493916
   3 C :    0.525081
   4 O :   -0.544955
   5 C :    1.150451
   6 O :   -0.523757
   7 H :    0.010389
   8 H :   -0.009391
   9 P :    0.077483
  10 C :    0.858228
  11 H :    0.337786
  12 C :    1.251345
  13 H :    0.140795
  14 C :    0.809748
  15 H :    0.186956
  16 C :    0.805061
  17 P :    0.086861
  18 H :    0.339968
  19 H :    0.188370
  20 C :    1.250316
  21 H :    0.140049
  22 C :   -0.871378
  23 H :    0.170584
  24 H :    0.088240
  25 H :    0.086361
  26 C :   -0.686042
  27 H :    0.146267
  28 H :   -0.022898
  29 H :    0.081211
  30 C :   -0.960554
  31 H :    0.135085
  32 H :    0.104814
  33 H :    0.137994
  34 C :   -0.732745
  35 H :    0.138140
  36 H :   -0.032915
  37 H :    0.103026
  38 C :   -0.814384
  39 H :    0.152667
  40 H :    0.037407
  41 H :    0.108675
  42 C :   -0.853332
  43 H :    0.086076
  44 H :    0.016859
  45 H :    0.175726
  46 C :   -0.961893
  47 H :    0.105067
  48 H :    0.135141
  49 H :    0.138353
  50 C :   -0.731505
  51 H :    0.102430
  52 C :   -0.852818
  53 H :   -0.034303
  54 H :    0.138667
  55 C :   -0.816509
  56 H :    0.016092
  57 H :    0.175614
  58 H :    0.086264
  59 C :    0.854387
  60 H :    0.153090
  61 H :    0.108215
  62 H :    0.039686
  63 C :   -0.875852
  64 H :    0.170497
  65 H :    0.086204
  66 H :    0.088312
  67 C :   -0.682687
  68 H :    0.080451
  69 H :   -0.023085
  70 H :    0.146028
Sum of atomic charges:    0.0000000

LOEWDIN ATOMIC CHARGES
----------------------
   0 W :    0.229640
   1 C :   -0.269031
   2 O :    0.041985
   3 C :   -0.322608
   4 O :    0.027437
   5 C :   -0.270279
   6 O :    0.036857
   7 H :    0.015662
   8 H :    0.016006
   9 P :    1.074350
  10 C :   -0.370080
  11 H :   -0.027608
  12 C :   -0.324877
  13 H :   -0.017300
  14 C :   -0.357145
  15 H :   -0.028882
  16 C :   -0.357166
  17 P :    1.074582
  18 H :   -0.027627
  19 H :   -0.028807
  20 C :   -0.324889
  21 H :   -0.017303
  22 C :    0.117235
  23 H :   -0.004033
  24 H :   -0.016197
  25 H :   -0.038113
  26 C :    0.107284
  27 H :   -0.003555
  28 H :   -0.050117
  29 H :   -0.023922
  30 C :    0.118023
  31 H :   -0.004414
  32 H :   -0.018039
  33 H :   -0.027063
  34 C :    0.112011
  35 H :   -0.002056
  36 H :   -0.052335
  37 H :   -0.014858
  38 C :    0.114265
  39 H :   -0.005330
  40 H :   -0.032392
  41 H :   -0.023365
  42 C :    0.112477
  43 H :   -0.028976
  44 H :   -0.033293
  45 H :   -0.004656
  46 C :    0.117992
  47 H :   -0.017976
  48 H :   -0.004425
  49 H :   -0.027051
  50 C :    0.112023
  51 H :   -0.014856
  52 C :    0.112410
  53 H :   -0.052341
  54 H :   -0.002069
  55 C :    0.114242
  56 H :   -0.033328
  57 H :   -0.004667
  58 H :   -0.028941
  59 C :   -0.370095
  60 H :   -0.005346
  61 H :   -0.023332
  62 H :   -0.032322
  63 C :    0.117165
  64 H :   -0.004026
  65 H :   -0.038090
  66 H :   -0.016195
  67 C :    0.107268
  68 H :   -0.023914
  69 H :   -0.050060
  70 H :   -0.003566

  Mayer bond orders larger than 0.100000
B(  0-W ,  1-C ) :   1.4851 B(  0-W ,  3-C ) :   1.7580 B(  0-W ,  5-C ) :   1.5700
B(  0-W ,  7-H ) :   0.3672 B(  0-W ,  8-H ) :   0.3896 B(  0-W ,  9-P ) :  -0.4076
B(  0-W , 10-C ) :   0.1084 B(  0-W , 12-C ) :   0.1479 B(  0-W , 17-P ) :  -0.4033
B(  0-W , 20-C ) :   0.1416 B(  0-W , 59-C ) :   0.1093 B(  1-C ,  2-O ) :   1.8365
B(  1-C ,  3-C ) :  -0.2825 B(  1-C ,  5-C ) :   0.1702 B(  3-C ,  4-O ) :   1.7233
B(  3-C ,  5-C ) :  -0.1732 B(  3-C ,  9-P ) :   0.3835 B(  3-C , 17-P ) :   0.3941
B(  5-C ,  6-O ) :   1.8413 B(  7-H ,  8-H ) :   0.8100 B(  7-H , 12-C ) :   0.1582
B(  7-H , 20-C ) :  -0.1567 B(  8-H , 12-C ) :  -0.1604 B(  8-H , 14-C ) :   0.1029
B(  8-H , 20-C ) :   0.1535 B(  9-P , 10-C ) :   0.6756 B(  9-P , 12-C ) :   0.4886
B(  9-P , 13-H ) :  -0.1217 B(  9-P , 14-C ) :   0.9565 B(  9-P , 17-P ) :  -0.3384
B(  9-P , 20-C ) :   0.1159 B(  9-P , 26-C ) :   0.1410 B(  9-P , 42-C ) :   0.1009
B( 10-C , 11-H ) :   0.8212 B( 10-C , 12-C ) :   0.1611 B( 10-C , 14-C ) :   0.3205
B( 10-C , 38-C ) :   0.5865 B( 10-C , 40-H ) :  -0.1008 B( 10-C , 42-C ) :   0.5841
B( 10-C , 44-H ) :  -0.1052 B( 12-C , 13-H ) :   0.9390 B( 12-C , 14-C ) :   0.2879
B( 12-C , 17-P ) :   0.1156 B( 12-C , 22-C ) :   0.4682 B( 12-C , 24-H ) :  -0.1377
B( 12-C , 26-C ) :   0.5647 B( 12-C , 29-H ) :  -0.1017 B( 13-H , 26-C ) :  -0.1016
B( 14-C , 15-H ) :   0.8946 B( 14-C , 30-C ) :   0.4578 B( 14-C , 34-C ) :   0.5728
B( 16-C , 17-P ) :   0.9529 B( 16-C , 19-H ) :   0.8940 B( 16-C , 20-C ) :   0.2864
B( 16-C , 46-C ) :   0.4603 B( 16-C , 50-C ) :   0.5725 B( 16-C , 59-C ) :   0.3198
B( 17-P , 20-C ) :   0.4982 B( 17-P , 21-H ) :  -0.1207 B( 17-P , 59-C ) :   0.6657
B( 17-P , 67-C ) :   0.1354 B( 18-H , 59-C ) :   0.8191 B( 20-C , 21-H ) :   0.9379
B( 20-C , 59-C ) :   0.1618 B( 20-C , 63-C ) :   0.4662 B( 20-C , 66-H ) :  -0.1374
B( 20-C , 67-C ) :   0.5654 B( 20-C , 68-H ) :  -0.1016 B( 21-H , 67-C ) :  -0.1020
B( 22-C , 23-H ) :   1.0500 B( 22-C , 24-H ) :   1.1286 B( 22-C , 25-H ) :   1.0751
B( 22-C , 26-C ) :   0.1755 B( 26-C , 27-H ) :   1.0247 B( 26-C , 28-H ) :   1.1424
B( 26-C , 29-H ) :   1.0084 B( 30-C , 31-H ) :   1.0788 B( 30-C , 32-H ) :   1.0709
B( 30-C , 33-H ) :   1.0011 B( 30-C , 34-C ) :   0.1207 B( 34-C , 35-H ) :   1.0067
B( 34-C , 36-H ) :   1.0671 B( 34-C , 37-H ) :   1.0458 B( 38-C , 39-H ) :   1.0573
B( 38-C , 40-H ) :   1.0763 B( 38-C , 41-H ) :   1.0107 B( 42-C , 43-H ) :   1.0134
B( 42-C , 44-H ) :   1.0878 B( 42-C , 45-H ) :   1.0279 B( 46-C , 47-H ) :   1.0696
B( 46-C , 48-H ) :   1.0793 B( 46-C , 49-H ) :   1.0009 B( 46-C , 50-C ) :   0.1199
B( 50-C , 51-H ) :   1.0472 B( 50-C , 53-H ) :   1.0652 B( 50-C , 54-H ) :   1.0059
B( 52-C , 56-H ) :   1.0874 B( 52-C , 57-H ) :   1.0276 B( 52-C , 58-H ) :   1.0139
B( 52-C , 59-C ) :   0.5890 B( 55-C , 59-C ) :   0.5887 B( 55-C , 60-H ) :   1.0568
B( 55-C , 61-H ) :   1.0114 B( 55-C , 62-H ) :   1.0748 B( 56-H , 59-C ) :  -0.1054
B( 59-C , 62-H ) :  -0.1006 B( 63-C , 64-H ) :   1.0501 B( 63-C , 65-H ) :   1.0749
B( 63-C , 66-H ) :   1.1272 B( 63-C , 67-C ) :   0.1747 B( 67-C , 68-H ) :   1.0080
B( 67-C , 69-H ) :   1.1425 B( 67-C , 70-H ) :   1.0246

MP2 TOTAL ENERGY:    -1801.501380005 Eh
Dispersion correction           -0.097195203
FINAL SINGLE POINT ENERGY     -1801.598575208706

DIPOLE MOMENT
-------------
                                X             Y             Z
Electronic contribution:      0.02009      -1.51098      17.23668
Nuclear contribution   :     -0.02072       1.50197     -16.46211
                        -----------------------------------------
Total Dipole Moment    :     -0.00062      -0.00900       0.77457
                        -----------------------------------------
Magnitude (a.u.)       :      0.77463
Magnitude (Debye)      :      1.96894

Rotational constants in cm-1:     0.008070     0.003719     0.003518
Rotational constants in MHz :   241.945038   111.491092   105.477311

                             ****ORCA TERMINATED NORMALLY****
TOTAL RUN TIME: 0 days 0 hours 15 minutes 17 seconds 729 msec
