                         Program Version 4.2.0 -  RELEASE  -
|  1> #
|  2> # MOR26_pr05 ri-B2PLYP-D3BJ/Def2-TZVPPD
|  3> #
|  4> ! rijk ri-b2plyp d3bj def2-tzvppd def2/jk def2-tzvppd/c grid4 nofinalgrid
|  5>
|  6> *xyz 0 1
|  7> Mn       0.144445   -0.000220    0.050119
|  8> O       -2.125838   -0.018069    2.024989
|  9> C       -1.261969   -0.011297    1.274333
| 10> C        1.407998   -0.004194    1.401883
| 11> O        2.195378   -0.006691    2.240943
| 12> C        1.458789    0.011243   -1.252981
| 13> O        2.260044    0.018413   -2.075843
| 14> C       -0.034165    1.837211   -0.109707
| 15> O       -0.163636    2.972926   -0.231026
| 16> C       -0.023402   -1.836685   -0.130415
| 17> O       -0.146189   -2.971707   -0.264701
| 18> C       -1.328355    0.004078   -1.485929
| 19> O       -2.518815    0.004844   -1.307728
| 20> H       -0.932058    0.005632   -2.529143
| 21> *
| 22>
| 23> %maxcore 5000
| 24>
| 25> %pal
| 26> nprocs = 24
| 27> end
| 28>
| 29>
| 30>                          ****END OF INPUT****

CARTESIAN COORDINATES (ANGSTROEM)
---------------------------------
  Mn     0.144445   -0.000220    0.050119
  O     -2.125838   -0.018069    2.024989
  C     -1.261969   -0.011297    1.274333
  C      1.407998   -0.004194    1.401883
  O      2.195378   -0.006691    2.240943
  C      1.458789    0.011243   -1.252981
  O      2.260044    0.018413   -2.075843
  C     -0.034165    1.837211   -0.109707
  O     -0.163636    2.972926   -0.231026
  C     -0.023402   -1.836685   -0.130415
  O     -0.146189   -2.971707   -0.264701
  C     -1.328355    0.004078   -1.485929
  O     -2.518815    0.004844   -1.307728
  H     -0.932058    0.005632   -2.529143

 Total Charge           Charge          ....    0
 Multiplicity           Mult            ....    1
 Number of Electrons    NEL             ....  110
 Basis Dimension        Dim             ....  546

ORBITAL ENERGIES
----------------

  NO   OCC          E(Eh)            E(eV)
   0   2.0000    -237.645571     -6466.6647
   1   2.0000     -28.125578      -765.3359
   2   2.0000     -24.046692      -654.3437
   3   2.0000     -24.046623      -654.3419
   4   2.0000     -24.042969      -654.2424
   5   2.0000     -19.851646      -540.1908
   6   2.0000     -19.845946      -540.0356
   7   2.0000     -19.843437      -539.9674
   8   2.0000     -19.842167      -539.9328
   9   2.0000     -19.842130      -539.9318
  10   2.0000     -19.728143      -536.8301
  11   2.0000     -10.783993      -293.4474
  12   2.0000     -10.779941      -293.3371
  13   2.0000     -10.778843      -293.3072
  14   2.0000     -10.778688      -293.3030
  15   2.0000     -10.778655      -293.3021
  16   2.0000     -10.701906      -291.2137
  17   2.0000      -3.465441       -94.2994
  18   2.0000      -2.249950       -61.2242
  19   2.0000      -2.249845       -61.2214
  20   2.0000      -2.239524       -60.9406
  21   2.0000      -1.325365       -36.0650
  22   2.0000      -1.320759       -35.9397
  23   2.0000      -1.317078       -35.8395
  24   2.0000      -1.316065       -35.8120
  25   2.0000      -1.316030       -35.8110
  26   2.0000      -1.192905       -32.4606
  27   2.0000      -0.744900       -20.2697
  28   2.0000      -0.697898       -18.9908
  29   2.0000      -0.692710       -18.8496
  30   2.0000      -0.692207       -18.8359
  31   2.0000      -0.688968       -18.7478
  32   2.0000      -0.678192       -18.4545
  33   2.0000      -0.618659       -16.8346
  34   2.0000      -0.584093       -15.8940
  35   2.0000      -0.580413       -15.7938
  36   2.0000      -0.577734       -15.7209
  37   2.0000      -0.575313       -15.6551
  38   2.0000      -0.574181       -15.6243
  39   2.0000      -0.572044       -15.5661
  40   2.0000      -0.557969       -15.1831
  41   2.0000      -0.555080       -15.1045
  42   2.0000      -0.553605       -15.0644
  43   2.0000      -0.549517       -14.9531
  44   2.0000      -0.546511       -14.8713
  45   2.0000      -0.538887       -14.6639
  46   2.0000      -0.534511       -14.5448
  47   2.0000      -0.522895       -14.2287
  48   2.0000      -0.511222       -13.9111
  49   2.0000      -0.469799       -12.7839
  50   2.0000      -0.446178       -12.1411
  51   2.0000      -0.353974        -9.6321
  52   2.0000      -0.349540        -9.5115
  53   2.0000      -0.341719        -9.2986
  54   2.0000      -0.273321        -7.4374
  55   0.0000      -0.005462        -0.1486
  56   0.0000      -0.003691        -0.1004
  57   0.0000       0.000683         0.0186
  58   0.0000       0.007089         0.1929
  59   0.0000       0.011365         0.3093

MULLIKEN ATOMIC CHARGES
-----------------------
   0 Mn:    1.766870
   1 O :   -0.260823
   2 C :    0.183962
   3 C :    0.159930
   4 O :   -0.314605
   5 C :    0.073246
   6 O :   -0.289754
   7 C :   -0.096721
   8 O :   -0.292879
   9 C :   -0.099289
  10 O :   -0.293078
  11 C :   -0.062785
  12 O :   -0.492734
  13 H :    0.018662
Sum of atomic charges:   -0.0000000

LOEWDIN ATOMIC CHARGES
----------------------
   0 Mn:   -0.457086
   1 O :    0.187054
   2 C :   -0.026159
   3 C :   -0.034113
   4 O :    0.150914
   5 C :   -0.046933
   6 O :    0.170427
   7 C :   -0.041120
   8 O :    0.164554
   9 C :   -0.041238
  10 O :    0.164477
  11 C :   -0.149219
  12 O :   -0.019093
  13 H :   -0.022464

  Mayer bond orders larger than 0.100000
B(  0-Mn,  2-C ) :   0.5005 B(  0-Mn,  3-C ) :   0.7092 B(  0-Mn,  5-C ) :   0.4047
B(  0-Mn,  7-C ) :   0.4541 B(  0-Mn,  9-C ) :   0.4504 B(  0-Mn, 11-C ) :   0.2812
B(  0-Mn, 12-O ) :   0.1197 B(  0-Mn, 13-H ) :  -0.1462 B(  1-O ,  2-C ) :   2.1628
B(  3-C ,  4-O ) :   2.1483 B(  5-C ,  6-O ) :   2.1499 B(  7-C ,  8-O ) :   2.1631
B(  7-C , 11-C ) :   0.2102 B(  9-C , 10-O ) :   2.1633 B(  9-C , 11-C ) :   0.2117
B( 11-C , 12-O ) :   1.7564 B( 11-C , 13-H ) :   1.2208

MP2 TOTAL ENERGY:    -1831.387303331 Eh
Dispersion correction           -0.016289896
FINAL SINGLE POINT ENERGY     -1831.403593227037

DIPOLE MOMENT
-------------
                                X             Y             Z
Electronic contribution:      2.69294      -0.00789       2.86422
Nuclear contribution   :     -1.52284       0.00619      -2.55446
                        -----------------------------------------
Total Dipole Moment    :      1.17010      -0.00170       0.30976
                        -----------------------------------------
Magnitude (a.u.)       :      1.21041
Magnitude (Debye)      :      3.07662

Rotational constants in cm-1:     0.023969     0.022043     0.021367
Rotational constants in MHz :   718.564967   660.846663   640.564054

                             ****ORCA TERMINATED NORMALLY****
TOTAL RUN TIME: 0 days 0 hours 0 minutes 36 seconds 735 msec
