                         Program Version 4.2.0 -  RELEASE  -
|  1> #
|  2> # MOR25_pr01 ri-B2PLYP-D3BJ/Def2-TZVPPD
|  3> #
|  4> ! rijk ri-b2plyp d3bj def2-tzvppd def2/jk def2-tzvppd/c grid4 nofinalgrid
|  5>
|  6> *xyz 0 1
|  7> Cr      -0.000002    0.000001   -0.000002
|  8> O       -2.697134   -0.646688    1.294578
|  9> C       -1.683963   -0.403751    0.808266
| 10> C        0.796729   -1.469777    0.925736
| 11> O        1.276107   -2.354083    1.482723
| 12> C        1.683955    0.403738   -0.808274
| 13> O        2.697131    0.646654   -1.294589
| 14> C        0.426065    1.152703    1.463476
| 15> O        0.682414    1.846242    2.344001
| 16> C       -0.426072   -1.152714   -1.463481
| 17> O       -0.682416   -1.846267   -2.343994
| 18> C       -0.796727    1.469805   -0.925736
| 19> O       -1.276085    2.354134   -1.482702
| 20> *
| 21>
| 22> %maxcore 5000
| 23>
| 24> %pal
| 25> nprocs = 24
| 26> end
| 27>
| 28>
| 29>                          ****END OF INPUT****

CARTESIAN COORDINATES (ANGSTROEM)
---------------------------------
  Cr    -0.000002    0.000001   -0.000002
  O     -2.697134   -0.646688    1.294578
  C     -1.683963   -0.403751    0.808266
  C      0.796729   -1.469777    0.925736
  O      1.276107   -2.354083    1.482723
  C      1.683955    0.403738   -0.808274
  O      2.697131    0.646654   -1.294589
  C      0.426065    1.152703    1.463476
  O      0.682414    1.846242    2.344001
  C     -0.426072   -1.152714   -1.463481
  O     -0.682416   -1.846267   -2.343994
  C     -0.796727    1.469805   -0.925736
  O     -1.276085    2.354134   -1.482702

 Total Charge           Charge          ....    0
 Multiplicity           Mult            ....    1
 Number of Electrons    NEL             ....  108
 Basis Dimension        Dim             ....  529

ORBITAL ENERGIES
----------------

  NO   OCC          E(Eh)            E(eV)
   0   2.0000    -217.801540     -5926.6812
   1   2.0000     -25.478921      -693.3167
   2   2.0000     -21.616396      -588.2120
   3   2.0000     -21.616395      -588.2120
   4   2.0000     -21.616395      -588.2120
   5   2.0000     -19.831351      -539.6385
   6   2.0000     -19.831350      -539.6385
   7   2.0000     -19.831348      -539.6384
   8   2.0000     -19.831347      -539.6384
   9   2.0000     -19.831346      -539.6384
  10   2.0000     -19.831343      -539.6383
  11   2.0000     -10.765741      -292.9507
  12   2.0000     -10.765733      -292.9505
  13   2.0000     -10.765733      -292.9505
  14   2.0000     -10.765732      -292.9505
  15   2.0000     -10.765731      -292.9504
  16   2.0000     -10.765731      -292.9504
  17   2.0000      -3.155565       -85.8673
  18   2.0000      -2.024357       -55.0856
  19   2.0000      -2.024357       -55.0856
  20   2.0000      -2.024356       -55.0855
  21   2.0000      -1.306953       -35.5640
  22   2.0000      -1.305806       -35.5328
  23   2.0000      -1.305805       -35.5328
  24   2.0000      -1.305804       -35.5327
  25   2.0000      -1.305372       -35.5210
  26   2.0000      -1.305370       -35.5209
  27   2.0000      -0.728632       -19.8271
  28   2.0000      -0.681628       -18.5480
  29   2.0000      -0.681628       -18.5480
  30   2.0000      -0.681627       -18.5480
  31   2.0000      -0.677365       -18.4320
  32   2.0000      -0.677364       -18.4320
  33   2.0000      -0.607512       -16.5312
  34   2.0000      -0.566807       -15.4236
  35   2.0000      -0.566806       -15.4236
  36   2.0000      -0.566806       -15.4236
  37   2.0000      -0.565370       -15.3845
  38   2.0000      -0.565370       -15.3845
  39   2.0000      -0.565369       -15.3845
  40   2.0000      -0.546020       -14.8580
  41   2.0000      -0.546019       -14.8579
  42   2.0000      -0.546019       -14.8579
  43   2.0000      -0.538828       -14.6623
  44   2.0000      -0.538828       -14.6622
  45   2.0000      -0.538827       -14.6622
  46   2.0000      -0.529450       -14.4071
  47   2.0000      -0.529448       -14.4070
  48   2.0000      -0.500233       -13.6120
  49   2.0000      -0.500231       -13.6120
  50   2.0000      -0.500228       -13.6119
  51   2.0000      -0.303139        -8.2488
  52   2.0000      -0.303139        -8.2488
  53   2.0000      -0.303136        -8.2488
  54   0.0000      -0.005007        -0.1363
  55   0.0000      -0.005002        -0.1361
  56   0.0000      -0.004994        -0.1359
  57   0.0000       0.013476         0.3667
  58   0.0000       0.020411         0.5554

MULLIKEN ATOMIC CHARGES
-----------------------
   0 Cr:   -1.164030
   1 O :   -0.305789
   2 C :    0.499430
   3 C :    0.500090
   4 O :   -0.305951
   5 C :    0.499719
   6 O :   -0.305782
   7 C :    0.499948
   8 O :   -0.305755
   9 C :    0.499941
  10 O :   -0.305783
  11 C :    0.499895
  12 O :   -0.305935
Sum of atomic charges:   -0.0000000

LOEWDIN ATOMIC CHARGES
----------------------
   0 Cr:   -0.517533
   1 O :    0.144238
   2 C :   -0.057990
   3 C :   -0.057986
   4 O :    0.144239
   5 C :   -0.057992
   6 O :    0.144237
   7 C :   -0.057986
   8 O :    0.144243
   9 C :   -0.057982
  10 O :    0.144246
  11 C :   -0.057975
  12 O :    0.144240

  Mayer bond orders larger than 0.100000
B(  0-Cr,  1-O ) :   0.1256 B(  0-Cr,  2-C ) :   0.8786 B(  0-Cr,  3-C ) :   0.8787
B(  0-Cr,  4-O ) :   0.1259 B(  0-Cr,  5-C ) :   0.8789 B(  0-Cr,  6-O ) :   0.1256
B(  0-Cr,  7-C ) :   0.8775 B(  0-Cr,  8-O ) :   0.1257 B(  0-Cr,  9-C ) :   0.8771
B(  0-Cr, 10-O ) :   0.1260 B(  0-Cr, 11-C ) :   0.8779 B(  0-Cr, 12-O ) :   0.1260
B(  1-O ,  2-C ) :   2.1028 B(  3-C ,  4-O ) :   2.1024 B(  5-C ,  6-O ) :   2.1029
B(  7-C ,  8-O ) :   2.1025 B(  9-C , 10-O ) :   2.1021 B( 11-C , 12-O ) :   2.1023

MP2 TOTAL ENERGY:    -1724.308630965 Eh
Dispersion correction           -0.018034646
FINAL SINGLE POINT ENERGY     -1724.326665610406

DIPOLE MOMENT
-------------
                                X             Y             Z
Electronic contribution:     -0.00005       0.00001      -0.00004
Nuclear contribution   :      0.00001      -0.00000       0.00001
                        -----------------------------------------
Total Dipole Moment    :     -0.00004       0.00001      -0.00004
                        -----------------------------------------
Magnitude (a.u.)       :      0.00005
Magnitude (Debye)      :      0.00014

Rotational constants in cm-1:     0.021751     0.021751     0.021751
Rotational constants in MHz :   652.090818   652.088663   652.088001

                             ****ORCA TERMINATED NORMALLY****
TOTAL RUN TIME: 0 days 0 hours 0 minutes 33 seconds 666 msec
