                         Program Version 4.2.0 -  RELEASE  -
|  1> #
|  2> # MOR23_phseh ri-B2PLYP-D3BJ/Def2-TZVPPD
|  3> #
|  4> ! rijk ri-b2plyp d3bj def2-tzvppd def2/jk def2-tzvppd/c grid4 nofinalgrid
|  5>
|  6> *xyz 0 1
|  7> C        0.099641    0.015172    0.000002
|  8> C        0.811159    1.219454    0.000004
|  9> C        2.205438    1.200000    0.000001
| 10> C        2.898295   -0.010923    0.000001
| 11> C        2.184022   -1.209573    0.000001
| 12> C        0.790170   -1.202154    0.000003
| 13> Se      -1.821201   -0.043502   -0.000002
| 14> H       -1.984560    1.419830   -0.000002
| 15> H        0.283594    2.168662    0.000009
| 16> H        2.749671    2.140448   -0.000003
| 17> H        3.983980   -0.020380    0.000003
| 18> H        2.711288   -2.159513   -0.000002
| 19> H        0.244496   -2.141840    0.000007
| 20> *
| 21>
| 22> %maxcore 5000
| 23>
| 24> %pal
| 25> nprocs = 24
| 26> end
| 27>
| 28>
| 29>                          ****END OF INPUT****

CARTESIAN COORDINATES (ANGSTROEM)
---------------------------------
  C      0.099641    0.015172    0.000002
  C      0.811159    1.219454    0.000004
  C      2.205438    1.200000    0.000001
  C      2.898295   -0.010923    0.000001
  C      2.184022   -1.209573    0.000001
  C      0.790170   -1.202154    0.000003
  Se    -1.821201   -0.043502   -0.000002
  H     -1.984560    1.419830   -0.000002
  H      0.283594    2.168662    0.000009
  H      2.749671    2.140448   -0.000003
  H      3.983980   -0.020380    0.000003
  H      2.711288   -2.159513   -0.000002
  H      0.244496   -2.141840    0.000007

 Total Charge           Charge          ....    0
 Multiplicity           Mult            ....    1
 Number of Electrons    NEL             ....   76
 Basis Dimension        Dim             ....  381

ORBITAL ENERGIES
----------------

  NO   OCC          E(Eh)            E(eV)
   0   2.0000    -456.805755    -12430.3165
   1   2.0000     -59.146148     -1609.4485
   2   2.0000     -53.010680     -1442.4939
   3   2.0000     -53.009671     -1442.4665
   4   2.0000     -53.008044     -1442.4222
   5   2.0000     -10.661943      -290.1262
   6   2.0000     -10.630773      -289.2780
   7   2.0000     -10.630305      -289.2653
   8   2.0000     -10.629565      -289.2452
   9   2.0000     -10.629348      -289.2393
  10   2.0000     -10.624759      -289.1144
  11   2.0000      -8.272630      -225.1097
  12   2.0000      -6.130635      -166.8230
  13   2.0000      -6.126829      -166.7195
  14   2.0000      -6.120527      -166.5480
  15   2.0000      -2.333415       -63.4954
  16   2.0000      -2.332411       -63.4681
  17   2.0000      -2.326034       -63.2946
  18   2.0000      -2.322525       -63.1991
  19   2.0000      -2.321721       -63.1773
  20   2.0000      -0.990739       -26.9594
  21   2.0000      -0.885114       -24.0852
  22   2.0000      -0.868734       -23.6395
  23   2.0000      -0.789069       -21.4717
  24   2.0000      -0.708996       -19.2928
  25   2.0000      -0.684412       -18.6238
  26   2.0000      -0.597540       -16.2599
  27   2.0000      -0.540217       -14.7001
  28   2.0000      -0.534181       -14.5358
  29   2.0000      -0.502303       -13.6684
  30   2.0000      -0.477969       -13.0062
  31   2.0000      -0.442697       -12.0464
  32   2.0000      -0.431964       -11.7544
  33   2.0000      -0.418324       -11.3832
  34   2.0000      -0.379224       -10.3192
  35   2.0000      -0.337703        -9.1894
  36   2.0000      -0.301561        -8.2059
  37   2.0000      -0.257134        -6.9970
  38   0.0000       0.021278         0.5790
  39   0.0000       0.025390         0.6909
  40   0.0000       0.028318         0.7706
  41   0.0000       0.029204         0.7947
  42   0.0000       0.040165         1.0929

MULLIKEN ATOMIC CHARGES
-----------------------
   0 C :    0.288330
   1 C :    0.178355
   2 C :   -0.032293
   3 C :   -0.089839
   4 C :    0.002999
   5 C :   -0.133718
   6 Se:   -0.072959
   7 H :   -0.001400
   8 H :   -0.070210
   9 H :   -0.007922
  10 H :    0.000492
  11 H :   -0.008023
  12 H :   -0.053812
Sum of atomic charges:    0.0000000

LOEWDIN ATOMIC CHARGES
----------------------
   0 C :   -0.568288
   1 C :   -0.044380
   2 C :    0.009875
   3 C :    0.006048
   4 C :    0.009378
   5 C :   -0.056763
   6 Se:    0.918473
   7 H :   -0.254812
   8 H :   -0.012230
   9 H :    0.001185
  10 H :   -0.003025
  11 H :    0.001316
  12 H :   -0.006779

  Mayer bond orders larger than 0.100000
B(  0-C ,  1-C ) :   1.0021 B(  0-C ,  5-C ) :   1.1434 B(  0-C ,  6-Se) :   1.1308
B(  0-C ,  8-H ) :  -0.1837 B(  0-C , 12-H ) :  -0.1910 B(  1-C ,  2-C ) :   1.1901
B(  1-C ,  6-Se) :  -0.1327 B(  1-C ,  8-H ) :   1.1394 B(  2-C ,  3-C ) :   1.2411
B(  2-C ,  9-H ) :   1.0989 B(  3-C ,  4-C ) :   1.2279 B(  3-C , 10-H ) :   1.0863
B(  3-C , 11-H ) :  -0.1003 B(  4-C ,  5-C ) :   1.2372 B(  4-C , 11-H ) :   1.1025
B(  5-C , 12-H ) :   1.1302 B(  6-Se,  7-H ) :   1.0144

MP2 TOTAL ENERGY:    -2633.297595741 Eh
Dispersion correction           -0.012063835
FINAL SINGLE POINT ENERGY     -2633.309659575382

DIPOLE MOMENT
-------------
                                X             Y             Z
Electronic contribution:    -25.02687      -1.50412      -0.00003
Nuclear contribution   :     25.40592       1.71219       0.00003
                        -----------------------------------------
Total Dipole Moment    :      0.37905       0.20808       0.00000
                        -----------------------------------------
Magnitude (a.u.)       :      0.43240
Magnitude (Debye)      :      1.09909

Rotational constants in cm-1:     0.185431     0.032154     0.027403
Rotational constants in MHz :  5559.086830   963.964760   821.511792

                             ****ORCA TERMINATED NORMALLY****
TOTAL RUN TIME: 0 days 0 hours 0 minutes 13 seconds 472 msec
