                         Program Version 4.2.0 -  RELEASE  -
|  1> #
|  2> # MOR20_i2 ri-B2PLYP-D3BJ/Def2-TZVPPD
|  3> #
|  4> ! rijk ri-b2plyp d3bj def2-tzvppd def2/jk def2-tzvppd/c grid4 nofinalgrid
|  5>
|  6> *xyz 0 1
|  7> I        0.000000    0.000000    1.341554
|  8> I        0.000000    0.000000   -1.341554
|  9> *
| 10>
| 11> %maxcore 5000
| 12>
| 13> %pal
| 14> nprocs = 24
| 15> end
| 16>
| 17>
| 18>                          ****END OF INPUT****

CARTESIAN COORDINATES (ANGSTROEM)
---------------------------------
  I      0.000000    0.000000    1.341554
  I      0.000000    0.000000   -1.341554

 Total Charge           Charge          ....    0
 Multiplicity           Mult            ....    1
 Number of Electrons    NEL             ....   50
 Basis Dimension        Dim             ....  118

ORBITAL ENERGIES
----------------

  NO   OCC          E(Eh)            E(eV)
   0   2.0000      -7.245152      -197.1506
   1   2.0000      -7.245135      -197.1501
   2   2.0000      -5.201436      -141.5383
   3   2.0000      -5.201247      -141.5331
   4   2.0000      -5.186660      -141.1362
   5   2.0000      -5.186660      -141.1362
   6   2.0000      -5.186640      -141.1357
   7   2.0000      -5.186640      -141.1357
   8   2.0000      -2.105353       -57.2896
   9   2.0000      -2.100557       -57.1591
  10   2.0000      -2.098581       -57.1053
  11   2.0000      -2.098581       -57.1053
  12   2.0000      -2.097125       -57.0657
  13   2.0000      -2.097125       -57.0657
  14   2.0000      -2.084218       -56.7145
  15   2.0000      -2.084206       -56.7141
  16   2.0000      -2.084109       -56.7115
  17   2.0000      -2.084097       -56.7112
  18   2.0000      -0.841456       -22.8972
  19   2.0000      -0.743643       -20.2356
  20   2.0000      -0.416431       -11.3317
  21   2.0000      -0.371734       -10.1154
  22   2.0000      -0.371734       -10.1154
  23   2.0000      -0.303673        -8.2634
  24   2.0000      -0.303672        -8.2633
  25   0.0000      -0.094696        -2.5768
  26   0.0000       0.028451         0.7742
  27   0.0000       0.037906         1.0315
  28   0.0000       0.038993         1.0611
  29   0.0000       0.038993         1.0611

MULLIKEN ATOMIC CHARGES
-----------------------
   0 I :   -0.000001
   1 I :    0.000001
Sum of atomic charges:   -0.0000000

LOEWDIN ATOMIC CHARGES
----------------------
   0 I :   -0.000000
   1 I :    0.000000

  Mayer bond orders larger than 0.100000
B(  0-I ,  1-I ) :   1.0104

MP2 TOTAL ENERGY:     -595.100447547 Eh
Dispersion correction           -0.002583498
FINAL SINGLE POINT ENERGY      -595.103031044772

DIPOLE MOMENT
-------------
                                X             Y             Z
Electronic contribution:     -0.00000      -0.00000       0.00000
Nuclear contribution   :      0.00000       0.00000       0.00000
                        -----------------------------------------
Total Dipole Moment    :     -0.00000      -0.00000       0.00000
                        -----------------------------------------
Magnitude (a.u.)       :      0.00000
Magnitude (Debye)      :      0.00000

Rotational constants in cm-1:     0.000000     0.036905     0.036905
Rotational constants in MHz :     0.000000  1106.393636  1106.393636

                             ****ORCA TERMINATED NORMALLY****
TOTAL RUN TIME: 0 days 0 hours 0 minutes 5 seconds 642 msec
