                         Program Version 4.2.0 -  RELEASE  -
|  1> #
|  2> # MOR22_pcy3 ri-B2PLYP-D3BJ/Def2-TZVPPD
|  3> #
|  4> ! rijk ri-b2plyp d3bj def2-tzvppd def2/jk def2-tzvppd/c grid4 nofinalgrid
|  5>
|  6> *xyz 0 1
|  7> P       -0.216171   -0.083077   -1.104749
|  8> C        0.505342    1.551445   -0.512411
|  9> C        0.372168    1.952615    0.967298
| 10> C        0.853698    3.397029    1.180070
| 11> C        2.300662    3.578910    0.704200
| 12> C        2.457928    3.151362   -0.760734
| 13> C        1.965268    1.712769   -0.974950
| 14> C        0.795470   -1.465851   -0.339173
| 15> C        1.194026   -1.376002    1.141683
| 16> C        1.830829   -2.691519    1.617818
| 17> C        3.044522   -3.062049    0.755351
| 18> C        2.669205   -3.127202   -0.731177
| 19> C        2.022807   -1.816580   -1.203888
| 20> C       -1.786787   -0.169467   -0.086099
| 21> C       -2.713096    0.996882   -0.481425
| 22> C       -4.042154    0.954203    0.285800
| 23> C       -4.758728   -0.385405    0.080261
| 24> C       -3.846658   -1.555269    0.467941
| 25> C       -2.516136   -1.508613   -0.298163
| 26> H       -0.086881    2.275758   -1.095374
| 27> H        0.969845    1.279400    1.591405
| 28> H       -0.665694    1.858440    1.303963
| 29> H        0.763179    3.670246    2.238833
| 30> H        0.199154    4.078898    0.617939
| 31> H        2.616561    4.621342    0.833145
| 32> H        2.964320    2.965719    1.331124
| 33> H        1.874427    3.827995   -1.401227
| 34> H        3.505668    3.240568   -1.073514
| 35> H        2.061196    1.427054   -2.029468
| 36> H        2.603163    1.029346   -0.398698
| 37> H        0.103060   -2.317100   -0.439871
| 38> H        1.082328   -3.494681    1.556078
| 39> H        0.325749   -1.129652    1.763601
| 40> H        1.922184   -0.564787    1.270256
| 41> H        2.123181   -2.608981    2.672179
| 42> H        3.467034   -4.019422    1.084011
| 43> H        3.828662   -2.303820    0.895790
| 44> H        3.555664   -3.350052   -1.337889
| 45> H        1.959466   -3.952268   -0.888607
| 46> H        1.724465   -1.892063   -2.255831
| 47> H        2.762591   -1.008464   -1.141586
| 48> H       -1.543753   -0.076214    0.982532
| 49> H       -2.216101    1.957671   -0.306445
| 50> H       -2.910289    0.936504   -1.561343
| 51> H       -3.843829    1.098520    1.357699
| 52> H       -4.683867    1.784681   -0.033466
| 53> H       -5.041866   -0.483893   -0.977569
| 54> H       -5.687452   -0.415984    0.663015
| 55> H       -4.350272   -2.511559    0.279900
| 56> H       -3.640750   -1.510603    1.547174
| 57> H       -1.884435   -2.344750    0.021762
| 58> H       -2.704341   -1.645246   -1.372687
| 59> *
| 60>
| 61> %maxcore 5000
| 62>
| 63> %pal
| 64> nprocs = 24
| 65> end
| 66>
| 67>
| 68>                          ****END OF INPUT****

CARTESIAN COORDINATES (ANGSTROEM)
---------------------------------
  P     -0.216171   -0.083077   -1.104749
  C      0.505342    1.551445   -0.512411
  C      0.372168    1.952615    0.967298
  C      0.853698    3.397029    1.180070
  C      2.300662    3.578910    0.704200
  C      2.457928    3.151362   -0.760734
  C      1.965268    1.712769   -0.974950
  C      0.795470   -1.465851   -0.339173
  C      1.194026   -1.376002    1.141683
  C      1.830829   -2.691519    1.617818
  C      3.044522   -3.062049    0.755351
  C      2.669205   -3.127202   -0.731177
  C      2.022807   -1.816580   -1.203888
  C     -1.786787   -0.169467   -0.086099
  C     -2.713096    0.996882   -0.481425
  C     -4.042154    0.954203    0.285800
  C     -4.758728   -0.385405    0.080261
  C     -3.846658   -1.555269    0.467941
  C     -2.516136   -1.508613   -0.298163
  H     -0.086881    2.275758   -1.095374
  H      0.969845    1.279400    1.591405
  H     -0.665694    1.858440    1.303963
  H      0.763179    3.670246    2.238833
  H      0.199154    4.078898    0.617939
  H      2.616561    4.621342    0.833145
  H      2.964320    2.965719    1.331124
  H      1.874427    3.827995   -1.401227
  H      3.505668    3.240568   -1.073514
  H      2.061196    1.427054   -2.029468
  H      2.603163    1.029346   -0.398698
  H      0.103060   -2.317100   -0.439871
  H      1.082328   -3.494681    1.556078
  H      0.325749   -1.129652    1.763601
  H      1.922184   -0.564787    1.270256
  H      2.123181   -2.608981    2.672179
  H      3.467034   -4.019422    1.084011
  H      3.828662   -2.303820    0.895790
  H      3.555664   -3.350052   -1.337889
  H      1.959466   -3.952268   -0.888607
  H      1.724465   -1.892063   -2.255831
  H      2.762591   -1.008464   -1.141586
  H     -1.543753   -0.076214    0.982532
  H     -2.216101    1.957671   -0.306445
  H     -2.910289    0.936504   -1.561343
  H     -3.843829    1.098520    1.357699
  H     -4.683867    1.784681   -0.033466
  H     -5.041866   -0.483893   -0.977569
  H     -5.687452   -0.415984    0.663015
  H     -4.350272   -2.511559    0.279900
  H     -3.640750   -1.510603    1.547174
  H     -1.884435   -2.344750    0.021762
  H     -2.704341   -1.645246   -1.372687

 Total Charge           Charge          ....    0
 Multiplicity           Mult            ....    1
 Number of Electrons    NEL             ....  156
 Basis Dimension        Dim             .... 1275

ORBITAL ENERGIES
----------------

  NO   OCC          E(Eh)            E(eV)
   0   2.0000     -78.235810     -2128.9046
   1   2.0000     -10.611135      -288.7436
   2   2.0000     -10.609995      -288.7126
   3   2.0000     -10.609649      -288.7032
   4   2.0000     -10.605720      -288.5963
   5   2.0000     -10.605376      -288.5869
   6   2.0000     -10.604732      -288.5694
   7   2.0000     -10.604533      -288.5640
   8   2.0000     -10.604096      -288.5521
   9   2.0000     -10.603917      -288.5473
  10   2.0000     -10.603477      -288.5353
  11   2.0000     -10.603409      -288.5334
  12   2.0000     -10.603318      -288.5309
  13   2.0000     -10.603300      -288.5305
  14   2.0000     -10.603085      -288.5246
  15   2.0000     -10.603041      -288.5234
  16   2.0000     -10.602202      -288.5006
  17   2.0000     -10.602114      -288.4982
  18   2.0000     -10.601606      -288.4844
  19   2.0000      -6.904996      -187.8945
  20   2.0000      -4.955883      -134.8564
  21   2.0000      -4.955743      -134.8526
  22   2.0000      -4.952730      -134.7706
  23   2.0000      -0.955164       -25.9913
  24   2.0000      -0.944837       -25.7103
  25   2.0000      -0.944480       -25.7006
  26   2.0000      -0.869356       -23.6564
  27   2.0000      -0.850297       -23.1378
  28   2.0000      -0.848616       -23.0920
  29   2.0000      -0.846145       -23.0248
  30   2.0000      -0.841243       -22.8914
  31   2.0000      -0.840227       -22.8637
  32   2.0000      -0.733279       -19.9535
  33   2.0000      -0.705807       -19.2060
  34   2.0000      -0.702706       -19.1216
  35   2.0000      -0.695256       -18.9189
  36   2.0000      -0.688078       -18.7236
  37   2.0000      -0.687480       -18.7073
  38   2.0000      -0.647679       -17.6242
  39   2.0000      -0.636814       -17.3286
  40   2.0000      -0.631981       -17.1971
  41   2.0000      -0.601772       -16.3751
  42   2.0000      -0.547670       -14.9029
  43   2.0000      -0.543710       -14.7951
  44   2.0000      -0.536395       -14.5960
  45   2.0000      -0.513151       -13.9635
  46   2.0000      -0.507474       -13.8091
  47   2.0000      -0.506975       -13.7955
  48   2.0000      -0.506352       -13.7785
  49   2.0000      -0.503790       -13.7088
  50   2.0000      -0.500756       -13.6263
  51   2.0000      -0.496861       -13.5203
  52   2.0000      -0.481763       -13.1094
  53   2.0000      -0.475089       -12.9278
  54   2.0000      -0.445954       -12.1350
  55   2.0000      -0.441422       -12.0117
  56   2.0000      -0.439911       -11.9706
  57   2.0000      -0.438417       -11.9299
  58   2.0000      -0.437645       -11.9089
  59   2.0000      -0.431247       -11.7348
  60   2.0000      -0.418001       -11.3744
  61   2.0000      -0.412637       -11.2284
  62   2.0000      -0.409332       -11.1385
  63   2.0000      -0.402760       -10.9597
  64   2.0000      -0.401589       -10.9278
  65   2.0000      -0.399466       -10.8700
  66   2.0000      -0.393371       -10.7042
  67   2.0000      -0.392290       -10.6747
  68   2.0000      -0.383894       -10.4463
  69   2.0000      -0.378114       -10.2890
  70   2.0000      -0.368721       -10.0334
  71   2.0000      -0.365108        -9.9351
  72   2.0000      -0.356823        -9.7097
  73   2.0000      -0.354999        -9.6600
  74   2.0000      -0.352378        -9.5887
  75   2.0000      -0.316718        -8.6183
  76   2.0000      -0.316479        -8.6118
  77   2.0000      -0.252680        -6.8758
  78   0.0000       0.028451         0.7742
  79   0.0000       0.034878         0.9491
  80   0.0000       0.036806         1.0016
  81   0.0000       0.040901         1.1130
  82   0.0000       0.049161         1.3377

MULLIKEN ATOMIC CHARGES
-----------------------
   0 P :   -1.057814
   1 C :    0.566389
   2 C :    0.039708
   3 C :   -0.523712
   4 C :   -0.145032
   5 C :   -0.406473
   6 C :   -0.409195
   7 C :    0.794478
   8 C :   -0.143223
   9 C :   -0.383756
  10 C :   -0.214088
  11 C :   -0.378661
  12 C :   -0.421995
  13 C :    0.601755
  14 C :   -0.330404
  15 C :   -0.230767
  16 C :   -0.355459
  17 C :   -0.145139
  18 C :   -0.363536
  19 H :    0.373703
  20 H :    0.104413
  21 H :   -0.129444
  22 H :    0.061484
  23 H :    0.144641
  24 H :    0.085084
  25 H :    0.105214
  26 H :    0.136499
  27 H :    0.053452
  28 H :    0.155458
  29 H :    0.099852
  30 H :    0.270257
  31 H :    0.116314
  32 H :    0.002644
  33 H :    0.123777
  34 H :    0.055534
  35 H :    0.088203
  36 H :    0.104790
  37 H :    0.049015
  38 H :    0.138417
  39 H :    0.109091
  40 H :    0.107052
  41 H :    0.273882
  42 H :   -0.059007
  43 H :    0.279655
  44 H :    0.102529
  45 H :    0.074605
  46 H :    0.134019
  47 H :    0.072029
  48 H :    0.073774
  49 H :    0.098642
  50 H :   -0.132726
  51 H :    0.234072
Sum of atomic charges:   -0.0000000

LOEWDIN ATOMIC CHARGES
----------------------
   0 P :    1.146152
   1 C :   -0.327695
   2 C :   -0.029354
   3 C :   -0.011220
   4 C :   -0.019477
   5 C :   -0.015264
   6 C :   -0.052643
   7 C :   -0.328402
   8 C :   -0.031844
   9 C :   -0.012536
  10 C :   -0.020122
  11 C :   -0.017247
  12 C :   -0.051602
  13 C :   -0.347768
  14 C :   -0.052744
  15 C :   -0.015004
  16 C :   -0.022572
  17 C :   -0.016394
  18 C :   -0.047317
  19 H :   -0.012355
  20 H :    0.001082
  21 H :   -0.004635
  22 H :    0.012064
  23 H :    0.019531
  24 H :    0.010226
  25 H :    0.018780
  26 H :    0.018820
  27 H :    0.011518
  28 H :    0.010793
  29 H :    0.000413
  30 H :   -0.022799
  31 H :    0.018916
  32 H :    0.007157
  33 H :    0.002378
  34 H :    0.011698
  35 H :    0.010015
  36 H :    0.018631
  37 H :    0.010961
  38 H :    0.018237
  39 H :    0.004956
  40 H :   -0.000396
  41 H :   -0.011697
  42 H :   -0.006181
  43 H :    0.019384
  44 H :    0.019354
  45 H :    0.011620
  46 H :    0.018770
  47 H :    0.010210
  48 H :    0.011158
  49 H :    0.019244
  50 H :   -0.004470
  51 H :    0.019666

  Mayer bond orders larger than 0.100000
B(  0-P ,  1-C ) :   0.7563 B(  0-P ,  6-C ) :   0.2772 B(  0-P ,  7-C ) :   0.6008
B(  0-P ,  8-C ) :   0.1829 B(  0-P , 13-C ) :   0.5991 B(  0-P , 14-C ) :   0.2640
B(  0-P , 19-H ) :  -0.1315 B(  0-P , 39-H ) :  -0.1287 B(  1-C ,  2-C ) :   1.0201
B(  1-C ,  3-C ) :   0.2304 B(  1-C ,  5-C ) :   0.2869 B(  1-C ,  6-C ) :   1.1089
B(  1-C ,  7-C ) :   0.1659 B(  1-C , 19-H ) :   0.8591 B(  2-C ,  3-C ) :   1.0034
B(  2-C , 19-H ) :  -0.1415 B(  2-C , 20-H ) :   0.9775 B(  2-C , 21-H ) :   1.0232
B(  3-C ,  4-C ) :   0.9824 B(  3-C ,  5-C ) :   0.1933 B(  3-C , 20-H ) :  -0.1287
B(  3-C , 21-H ) :   0.1053 B(  3-C , 22-H ) :   0.9795 B(  3-C , 23-H ) :   0.9932
B(  4-C ,  5-C ) :   0.9996 B(  4-C , 24-H ) :   1.0210 B(  4-C , 25-H ) :   1.0093
B(  5-C ,  6-C ) :   0.9471 B(  5-C , 26-H ) :   1.0031 B(  5-C , 27-H ) :   0.9924
B(  6-C , 19-H ) :  -0.1361 B(  6-C , 28-H ) :   0.9188 B(  6-C , 29-H ) :   1.0646
B(  7-C ,  8-C ) :   1.1323 B(  7-C ,  9-C ) :   0.2165 B(  7-C , 11-C ) :   0.2016
B(  7-C , 12-C ) :   1.0152 B(  7-C , 13-C ) :   0.1375 B(  7-C , 30-H ) :   0.8963
B(  8-C ,  9-C ) :   0.9479 B(  8-C , 30-H ) :  -0.1066 B(  8-C , 32-H ) :   0.9873
B(  8-C , 33-H ) :   1.0169 B(  9-C , 10-C ) :   0.9941 B(  9-C , 11-C ) :   0.1610
B(  9-C , 31-H ) :   0.9943 B(  9-C , 33-H ) :  -0.1042 B(  9-C , 34-H ) :   0.9894
B( 10-C , 11-C ) :   0.9993 B( 10-C , 35-H ) :   1.0235 B( 10-C , 36-H ) :   1.0146
B( 11-C , 12-C ) :   0.9205 B( 11-C , 37-H ) :   1.0174 B( 11-C , 38-H ) :   0.9983
B( 12-C , 39-H ) :   1.0138 B( 12-C , 40-H ) :   1.0331 B( 13-C , 14-C ) :   1.0487
B( 13-C , 15-C ) :   0.2206 B( 13-C , 17-C ) :   0.1443 B( 13-C , 18-C ) :   1.0720
B( 13-C , 41-H ) :   0.9274 B( 14-C , 15-C ) :   0.8305 B( 14-C , 16-C ) :   0.1645
B( 14-C , 41-H ) :  -0.1620 B( 14-C , 42-H ) :   1.0469 B( 14-C , 43-H ) :   0.9092
B( 15-C , 16-C ) :   1.0205 B( 15-C , 42-H ) :   0.1156 B( 15-C , 44-H ) :   1.0042
B( 15-C , 45-H ) :   1.0251 B( 16-C , 17-C ) :   0.9977 B( 16-C , 18-C ) :   0.1877
B( 16-C , 46-H ) :   0.9968 B( 16-C , 47-H ) :   1.0272 B( 17-C , 18-C ) :   0.8157
B( 17-C , 48-H ) :   1.0244 B( 17-C , 49-H ) :   0.9946 B( 18-C , 41-H ) :  -0.1837
B( 18-C , 50-H ) :   1.0710 B( 18-C , 51-H ) :   0.9160

MP2 TOTAL ENERGY:    -1046.638540242 Eh
Dispersion correction           -0.052197182
FINAL SINGLE POINT ENERGY     -1046.690737423696

DIPOLE MOMENT
-------------
                                X             Y             Z
Electronic contribution:     -1.36688      -0.48127      -6.52562
Nuclear contribution   :      1.41899       0.52417       7.05083
                        -----------------------------------------
Total Dipole Moment    :      0.05211       0.04290       0.52521
                        -----------------------------------------
Magnitude (a.u.)       :      0.52953
Magnitude (Debye)      :      1.34595

Rotational constants in cm-1:     0.011612     0.009073     0.005947
Rotational constants in MHz :   348.132374   272.016111   178.294122

                             ****ORCA TERMINATED NORMALLY****
TOTAL RUN TIME: 0 days 0 hours 3 minutes 23 seconds 242 msec
