                         Program Version 4.2.0 -  RELEASE  -
|  1> #
|  2> # MOR29_pr11 ri-B2PLYP-D3BJ/Def2-TZVPPD
|  3> #
|  4> ! rijk ri-b2plyp d3bj def2-tzvppd def2/jk def2-tzvppd/c grid4 nofinalgrid
|  5>
|  6> *xyz 0 1
|  7> C       -1.039290   -2.639432    0.178033
|  8> C       -2.178017   -3.305635   -0.258724
|  9> C       -3.296391   -2.550827   -0.605540
| 10> C       -3.231094   -1.166811   -0.503382
| 11> H       -0.140242   -3.178187    0.457229
| 12> H       -2.180740   -4.388297   -0.324253
| 13> H       -4.206388   -3.031472   -0.950846
| 14> H       -4.092575   -0.563880   -0.765153
| 15> N       -0.970920   -1.306381    0.272680
| 16> C       -2.050199   -0.559703   -0.062217
| 17> C       -1.896627    0.903347    0.053727
| 18> N       -0.715899    1.344389    0.547476
| 19> C       -0.493208    2.660516    0.650101
| 20> C       -2.657172    3.172580   -0.229603
| 21> C       -1.435330    3.611046    0.276469
| 22> H        0.481431    2.944320    1.031789
| 23> H       -1.207232    4.666962    0.373432
| 24> C       -2.888209    1.807210   -0.342538
| 25> H       -3.826394    1.449184   -0.749672
| 26> H       -3.416704    3.882938   -0.540755
| 27> Pd       0.796966   -0.183618    0.920224
| 28> C        2.296006    1.038742    1.594093
| 29> H        1.829551    1.776866    2.255021
| 30> H        2.734263    1.506656    0.710942
| 31> H        3.050202    0.480142    2.149825
| 32> C        2.162541   -1.690695    1.159536
| 33> H        3.086547   -1.399047    0.660601
| 34> H        1.744149   -2.568037    0.656862
| 35> H        2.334771   -1.896294    2.218292
| 36> I        1.451603    0.093477   -1.772045
| 37> C        0.284011   -0.444486    2.913651
| 38> H       -0.123661   -1.453796    3.016265
| 39> H       -0.476481    0.304111    3.153737
| 40> H        1.159721   -0.321172    3.551993
| 41> *
| 42>
| 43> %maxcore 5000
| 44>
| 45> %pal
| 46> nprocs = 24
| 47> end
| 48>
| 49>
| 50>                          ****END OF INPUT****

CARTESIAN COORDINATES (ANGSTROEM)
---------------------------------
  C     -1.039290   -2.639432    0.178033
  C     -2.178017   -3.305635   -0.258724
  C     -3.296391   -2.550827   -0.605540
  C     -3.231094   -1.166811   -0.503382
  H     -0.140242   -3.178187    0.457229
  H     -2.180740   -4.388297   -0.324253
  H     -4.206388   -3.031472   -0.950846
  H     -4.092575   -0.563880   -0.765153
  N     -0.970920   -1.306381    0.272680
  C     -2.050199   -0.559703   -0.062217
  C     -1.896627    0.903347    0.053727
  N     -0.715899    1.344389    0.547476
  C     -0.493208    2.660516    0.650101
  C     -2.657172    3.172580   -0.229603
  C     -1.435330    3.611046    0.276469
  H      0.481431    2.944320    1.031789
  H     -1.207232    4.666962    0.373432
  C     -2.888209    1.807210   -0.342538
  H     -3.826394    1.449184   -0.749672
  H     -3.416704    3.882938   -0.540755
  Pd     0.796966   -0.183618    0.920224
  C      2.296006    1.038742    1.594093
  H      1.829551    1.776866    2.255021
  H      2.734263    1.506656    0.710942
  H      3.050202    0.480142    2.149825
  C      2.162541   -1.690695    1.159536
  H      3.086547   -1.399047    0.660601
  H      1.744149   -2.568037    0.656862
  H      2.334771   -1.896294    2.218292
  I      1.451603    0.093477   -1.772045
  C      0.284011   -0.444486    2.913651
  H     -0.123661   -1.453796    3.016265
  H     -0.476481    0.304111    3.153737
  H      1.159721   -0.321172    3.551993

 Total Charge           Charge          ....    0
 Multiplicity           Mult            ....    1
 Number of Electrons    NEL             ....  152
 Basis Dimension        Dim             ....  959

ORBITAL ENERGIES
----------------

  NO   OCC          E(Eh)            E(eV)
   0   2.0000     -14.894902      -405.3109
   1   2.0000     -14.894104      -405.2892
   2   2.0000     -10.706538      -291.3397
   3   2.0000     -10.705610      -291.3144
   4   2.0000     -10.690115      -290.8928
   5   2.0000     -10.688899      -290.8597
   6   2.0000     -10.672322      -290.4086
   7   2.0000     -10.671369      -290.3827
   8   2.0000     -10.664235      -290.1886
   9   2.0000     -10.663462      -290.1675
  10   2.0000     -10.659225      -290.0523
  11   2.0000     -10.658073      -290.0209
  12   2.0000     -10.600173      -288.4454
  13   2.0000     -10.596180      -288.3367
  14   2.0000     -10.594585      -288.2933
  15   2.0000      -7.114176      -193.5866
  16   2.0000      -5.063339      -137.7804
  17   2.0000      -5.059566      -137.6778
  18   2.0000      -5.059489      -137.6757
  19   2.0000      -3.750773      -102.0637
  20   2.0000      -2.367260       -64.4164
  21   2.0000      -2.364468       -64.3405
  22   2.0000      -2.363945       -64.3262
  23   2.0000      -1.965337       -53.4795
  24   2.0000      -1.963994       -53.4430
  25   2.0000      -1.963923       -53.4411
  26   2.0000      -1.960325       -53.3432
  27   2.0000      -1.960313       -53.3428
  28   2.0000      -1.133967       -30.8568
  29   2.0000      -1.106569       -30.1113
  30   2.0000      -0.963801       -26.2263
  31   2.0000      -0.955250       -25.9937
  32   2.0000      -0.949163       -25.8280
  33   2.0000      -0.890169       -24.2227
  34   2.0000      -0.793126       -21.5821
  35   2.0000      -0.782703       -21.2984
  36   2.0000      -0.781843       -21.2750
  37   2.0000      -0.756612       -20.5885
  38   2.0000      -0.755004       -20.5447
  39   2.0000      -0.743501       -20.2317
  40   2.0000      -0.732985       -19.9455
  41   2.0000      -0.677473       -18.4350
  42   2.0000      -0.661398       -17.9976
  43   2.0000      -0.617104       -16.7922
  44   2.0000      -0.616306       -16.7705
  45   2.0000      -0.595102       -16.1936
  46   2.0000      -0.577510       -15.7149
  47   2.0000      -0.554641       -15.0925
  48   2.0000      -0.540806       -14.7161
  49   2.0000      -0.529435       -14.4067
  50   2.0000      -0.528728       -14.3874
  51   2.0000      -0.520631       -14.1671
  52   2.0000      -0.496941       -13.5225
  53   2.0000      -0.489582       -13.3222
  54   2.0000      -0.481853       -13.1119
  55   2.0000      -0.478945       -13.0328
  56   2.0000      -0.472710       -12.8631
  57   2.0000      -0.465598       -12.6696
  58   2.0000      -0.439911       -11.9706
  59   2.0000      -0.436881       -11.8881
  60   2.0000      -0.433368       -11.7926
  61   2.0000      -0.431721       -11.7477
  62   2.0000      -0.419347       -11.4110
  63   2.0000      -0.389516       -10.5993
  64   2.0000      -0.383531       -10.4364
  65   2.0000      -0.376350       -10.2410
  66   2.0000      -0.368522       -10.0280
  67   2.0000      -0.359480        -9.7820
  68   2.0000      -0.351412        -9.5624
  69   2.0000      -0.350057        -9.5255
  70   2.0000      -0.326801        -8.8927
  71   2.0000      -0.310528        -8.4499
  72   2.0000      -0.305232        -8.3058
  73   2.0000      -0.241686        -6.5766
  74   2.0000      -0.231014        -6.2862
  75   2.0000      -0.230466        -6.2713
  76   0.0000      -0.048105        -1.3090
  77   0.0000      -0.016440        -0.4474
  78   0.0000      -0.001291        -0.0351
  79   0.0000       0.012162         0.3309
  80   0.0000       0.016667         0.4535

MULLIKEN ATOMIC CHARGES
-----------------------
   0 C :    0.266497
   1 C :   -0.189642
   2 C :    0.107942
   3 C :   -0.270207
   4 H :   -0.085855
   5 H :   -0.022043
   6 H :    0.010299
   7 H :   -0.102504
   8 N :    0.516095
   9 C :    0.524409
  10 C :    0.043149
  11 N :    0.689586
  12 C :    0.205315
  13 C :    0.047403
  14 C :   -0.165181
  15 H :   -0.114440
  16 H :   -0.027937
  17 C :   -0.262239
  18 H :   -0.100616
  19 H :    0.007855
  20 Pd:   -0.645867
  21 C :   -0.192372
  22 H :    0.094777
  23 H :    0.036584
  24 H :    0.123791
  25 C :   -0.100930
  26 H :    0.089242
  27 H :    0.017944
  28 H :    0.084240
  29 I :   -0.592201
  30 C :   -0.172048
  31 H :    0.045081
  32 H :    0.048139
  33 H :    0.085735
Sum of atomic charges:    0.0000000

LOEWDIN ATOMIC CHARGES
----------------------
   0 C :   -0.012592
   1 C :    0.063540
   2 C :    0.057357
   3 C :    0.087146
   4 H :    0.000644
   5 H :    0.007217
   6 H :    0.012204
   7 H :    0.000236
   8 N :    0.014724
   9 C :   -0.170381
  10 C :   -0.176964
  11 N :    0.005021
  12 C :   -0.014593
  13 C :    0.058095
  14 C :    0.064149
  15 H :    0.004225
  16 H :    0.007387
  17 C :    0.087377
  18 H :    0.000337
  19 H :    0.012211
  20 Pd:    0.683137
  21 C :    0.031445
  22 H :   -0.093902
  23 H :   -0.118674
  24 H :   -0.086198
  25 C :    0.024402
  26 H :   -0.103225
  27 H :   -0.109122
  28 H :   -0.086088
  29 I :   -0.054815
  30 C :    0.082767
  31 H :   -0.092300
  32 H :   -0.091223
  33 H :   -0.093544

  Mayer bond orders larger than 0.100000
B(  0-C ,  1-C ) :   1.1399 B(  0-C ,  4-H ) :   1.1138 B(  0-C ,  5-H ) :  -0.1007
B(  0-C ,  8-N ) :   1.5685 B(  0-C , 20-Pd) :  -0.1850 B(  1-C ,  2-C ) :   1.1106
B(  1-C ,  4-H ) :  -0.1451 B(  1-C ,  5-H ) :   1.1359 B(  1-C ,  6-H ) :  -0.1091
B(  1-C ,  8-N ) :  -0.2881 B(  1-C , 20-Pd) :   0.1543 B(  2-C ,  3-C ) :   0.9962
B(  2-C ,  6-H ) :   1.1026 B(  2-C ,  7-H ) :  -0.1713 B(  2-C ,  8-N ) :   0.1502
B(  3-C ,  6-H ) :  -0.1022 B(  3-C ,  7-H ) :   1.2719 B(  3-C ,  8-N ) :  -0.4061
B(  3-C ,  9-C ) :   0.9432 B(  3-C , 10-C ) :  -0.5843 B(  3-C , 20-Pd) :   0.2455
B(  7-H ,  9-C ) :  -0.1294 B(  8-N ,  9-C ) :   1.5082 B(  8-N , 10-C ) :   0.2044
B(  8-N , 11-N ) :  -0.1578 B(  8-N , 20-Pd) :   0.3521 B(  9-C , 10-C ) :   0.9361
B(  9-C , 11-N ) :   0.2949 B(  9-C , 17-C ) :  -0.7166 B(  9-C , 20-Pd) :  -0.2563
B(  9-C , 29-I ) :  -0.1095 B( 10-C , 11-N ) :   1.4637 B( 10-C , 17-C ) :   1.0690
B( 10-C , 18-H ) :  -0.1400 B( 10-C , 29-I ) :   0.1116 B( 11-N , 12-C ) :   1.5702
B( 11-N , 13-C ) :   0.1291 B( 11-N , 14-C ) :  -0.3292 B( 11-N , 17-C ) :  -0.4835
B( 11-N , 20-Pd) :   0.2287 B( 11-N , 30-C ) :  -0.1141 B( 12-C , 14-C ) :   1.1248
B( 12-C , 15-H ) :   1.1515 B( 12-C , 20-Pd) :  -0.1457 B( 13-C , 14-C ) :   1.1305
B( 13-C , 17-C ) :   0.9647 B( 13-C , 18-H ) :  -0.1741 B( 13-C , 19-H ) :   1.1062
B( 14-C , 15-H ) :  -0.1310 B( 14-C , 16-H ) :   1.1342 B( 14-C , 19-H ) :  -0.1127
B( 14-C , 20-Pd) :   0.1450 B( 17-C , 18-H ) :   1.2705 B( 17-C , 19-H ) :  -0.1004
B( 17-C , 20-Pd) :   0.2936 B( 20-Pd, 21-C ) :   0.8006 B( 20-Pd, 25-C ) :   0.7560
B( 20-Pd, 27-H ) :   0.1087 B( 20-Pd, 29-I ) :   0.8739 B( 20-Pd, 30-C ) :   0.6943
B( 20-Pd, 31-H ) :   0.1093 B( 20-Pd, 32-H ) :   0.1552 B( 21-C , 22-H ) :   1.0135
B( 21-C , 23-H ) :   1.0393 B( 21-C , 24-H ) :   1.0061 B( 21-C , 29-I ) :  -0.1415
B( 23-H , 29-I ) :   0.1542 B( 25-C , 26-H ) :   1.0338 B( 25-C , 27-H ) :   1.0273
B( 25-C , 28-H ) :   1.0227 B( 25-C , 29-I ) :  -0.1226 B( 29-I , 30-C ) :   0.1362
B( 30-C , 31-H ) :   1.0284 B( 30-C , 32-H ) :   1.0275 B( 30-C , 33-H ) :   1.0584

MP2 TOTAL ENERGY:    -1040.224324362 Eh
Dispersion correction           -0.045805440
FINAL SINGLE POINT ENERGY     -1040.270129802118

DIPOLE MOMENT
-------------
                                X             Y             Z
Electronic contribution:    145.11085      -3.88188     -70.58550
Nuclear contribution   :   -148.61747       4.04670      71.83695
                        -----------------------------------------
Total Dipole Moment    :     -3.50662       0.16482       1.25145
                        -----------------------------------------
Magnitude (a.u.)       :      3.72689
Magnitude (Debye)      :      9.47300

Rotational constants in cm-1:     0.010327     0.008787     0.007812
Rotational constants in MHz :   309.600948   263.417504   234.204311

                             ****ORCA TERMINATED NORMALLY****
TOTAL RUN TIME: 0 days 0 hours 3 minutes 22 seconds 922 msec
