                         Program Version 4.2.0 -  RELEASE  -
|  1> #
|  2> # MOR28_pr09 ri-B2PLYP-D3BJ/Def2-TZVPPD
|  3> #
|  4> ! rijk ri-b2plyp d3bj def2-tzvppd def2/jk def2-tzvppd/c grid4 nofinalgrid
|  5>
|  6> *xyz 0 1
|  7> Rh       0.002553    0.015324   -0.037445
|  8> P       -2.290286    0.102034   -0.002141
|  9> P        2.295185    0.104741   -0.029108
| 10> H       -0.000447    1.293328    0.830281
| 11> H        0.001130    1.304527   -0.889045
| 12> Cl       0.007749   -2.380443   -0.037879
| 13> C        3.048741    1.714400   -0.468454
| 14> C        3.042509   -0.273930    1.598336
| 15> C        3.097153   -1.069215   -1.172055
| 16> C       -3.110022   -0.330980   -1.580554
| 17> C       -3.050128   -1.025999    1.213911
| 18> C       -3.019556    1.731005    0.405513
| 19> C        4.221249    1.798414   -1.230361
| 20> C        4.789108    3.041134   -1.513476
| 21> C        4.197347    4.208872   -1.032572
| 22> C        3.028536    4.131819   -0.272310
| 23> C        2.452968    2.893237    0.001453
| 24> H        4.686057    0.892043   -1.605584
| 25> H        5.694526    3.094809   -2.111614
| 26> H        4.640059    5.175809   -1.254830
| 27> H        2.559280    5.038271    0.099833
| 28> H        1.532532    2.831516    0.574445
| 29> C        2.492740   -1.274577   -2.419700
| 30> C        3.069210   -2.141848   -3.343202
| 31> C        4.245283   -2.823200   -3.021963
| 32> C        4.842886   -2.633499   -1.775820
| 33> C        4.272633   -1.757382   -0.851682
| 34> H        1.559916   -0.765736   -2.648777
| 35> H        2.592837   -2.299617   -4.306681
| 36> H        4.688326   -3.509606   -3.738122
| 37> H        5.750981   -3.171899   -1.518950
| 38> H        4.733770   -1.615306    0.121218
| 39> C        2.573432   -1.401325    2.291237
| 40> C        3.112349   -1.729837    3.532773
| 41> C        4.110733   -0.934394    4.100320
| 42> C        4.573407    0.190471    3.418246
| 43> C        4.043987    0.520908    2.169837
| 44> H        1.789551   -2.010529    1.847481
| 45> H        2.746524   -2.605505    4.061892
| 46> H        4.523765   -1.189174    5.072491
| 47> H        5.347947    0.814312    3.855909
| 48> H        4.408962    1.396682    1.642408
| 49> C       -4.114004    1.861395    1.269146
| 50> C       -4.661457    3.119187    1.526531
| 51> C       -4.128475    4.254505    0.917253
| 52> C       -3.037090    4.130954    0.054341
| 53> C       -2.480194    2.878757   -0.192845
| 54> H       -4.534614    0.980084    1.743054
| 55> H       -5.505661    3.209295    2.204432
| 56> H       -4.556024    5.232793    1.118339
| 57> H       -2.613755    5.012384   -0.419158
| 58> H       -1.618255    2.782567   -0.846864
| 59> C       -4.156822    0.429958   -2.116482
| 60> C       -4.751801    0.052668   -3.321119
| 61> C       -4.309469   -1.085441   -3.994829
| 62> C       -3.265632   -1.846455   -3.463206
| 63> C       -2.661736   -1.471384   -2.265369
| 64> H       -4.506373    1.315520   -1.594998
| 65> H       -5.561640    0.650007   -3.730969
| 66> H       -4.773990   -1.377169   -4.932751
| 67> H       -2.915705   -2.732129   -3.986302
| 68> H       -1.843939   -2.054854   -1.849211
| 69> C       -2.377196   -1.225504    2.426817
| 70> C       -2.923708   -2.054207    3.402951
| 71> C       -4.138807   -2.701607    3.169380
| 72> C       -4.805427   -2.517892    1.957599
| 73> C       -4.264583   -1.681339    0.980942
| 74> H       -1.416572   -0.742639    2.587014
| 75> H       -2.394478   -2.207926    4.339105
| 76> H       -4.559549   -3.357196    3.926721
| 77> H       -5.744700   -3.030292    1.768738
| 78> H       -4.779554   -1.544060    0.034665
| 79> *
| 80>
| 81> %maxcore 5000
| 82>
| 83> %pal
| 84> nprocs = 24
| 85> end
| 86>
| 87>
| 88>                          ****END OF INPUT****

CARTESIAN COORDINATES (ANGSTROEM)
---------------------------------
  Rh     0.002553    0.015324   -0.037445
  P     -2.290286    0.102034   -0.002141
  P      2.295185    0.104741   -0.029108
  H     -0.000447    1.293328    0.830281
  H      0.001130    1.304527   -0.889045
  Cl     0.007749   -2.380443   -0.037879
  C      3.048741    1.714400   -0.468454
  C      3.042509   -0.273930    1.598336
  C      3.097153   -1.069215   -1.172055
  C     -3.110022   -0.330980   -1.580554
  C     -3.050128   -1.025999    1.213911
  C     -3.019556    1.731005    0.405513
  C      4.221249    1.798414   -1.230361
  C      4.789108    3.041134   -1.513476
  C      4.197347    4.208872   -1.032572
  C      3.028536    4.131819   -0.272310
  C      2.452968    2.893237    0.001453
  H      4.686057    0.892043   -1.605584
  H      5.694526    3.094809   -2.111614
  H      4.640059    5.175809   -1.254830
  H      2.559280    5.038271    0.099833
  H      1.532532    2.831516    0.574445
  C      2.492740   -1.274577   -2.419700
  C      3.069210   -2.141848   -3.343202
  C      4.245283   -2.823200   -3.021963
  C      4.842886   -2.633499   -1.775820
  C      4.272633   -1.757382   -0.851682
  H      1.559916   -0.765736   -2.648777
  H      2.592837   -2.299617   -4.306681
  H      4.688326   -3.509606   -3.738122
  H      5.750981   -3.171899   -1.518950
  H      4.733770   -1.615306    0.121218
  C      2.573432   -1.401325    2.291237
  C      3.112349   -1.729837    3.532773
  C      4.110733   -0.934394    4.100320
  C      4.573407    0.190471    3.418246
  C      4.043987    0.520908    2.169837
  H      1.789551   -2.010529    1.847481
  H      2.746524   -2.605505    4.061892
  H      4.523765   -1.189174    5.072491
  H      5.347947    0.814312    3.855909
  H      4.408962    1.396682    1.642408
  C     -4.114004    1.861395    1.269146
  C     -4.661457    3.119187    1.526531
  C     -4.128475    4.254505    0.917253
  C     -3.037090    4.130954    0.054341
  C     -2.480194    2.878757   -0.192845
  H     -4.534614    0.980084    1.743054
  H     -5.505661    3.209295    2.204432
  H     -4.556024    5.232793    1.118339
  H     -2.613755    5.012384   -0.419158
  H     -1.618255    2.782567   -0.846864
  C     -4.156822    0.429958   -2.116482
  C     -4.751801    0.052668   -3.321119
  C     -4.309469   -1.085441   -3.994829
  C     -3.265632   -1.846455   -3.463206
  C     -2.661736   -1.471384   -2.265369
  H     -4.506373    1.315520   -1.594998
  H     -5.561640    0.650007   -3.730969
  H     -4.773990   -1.377169   -4.932751
  H     -2.915705   -2.732129   -3.986302
  H     -1.843939   -2.054854   -1.849211
  C     -2.377196   -1.225504    2.426817
  C     -2.923708   -2.054207    3.402951
  C     -4.138807   -2.701607    3.169380
  C     -4.805427   -2.517892    1.957599
  C     -4.264583   -1.681339    0.980942
  H     -1.416572   -0.742639    2.587014
  H     -2.394478   -2.207926    4.339105
  H     -4.559549   -3.357196    3.926721
  H     -5.744700   -3.030292    1.768738
  H     -4.779554   -1.544060    0.034665

 Total Charge           Charge          ....    0
 Multiplicity           Mult            ....    1
 Number of Electrons    NEL             ....  312
 Basis Dimension        Dim             .... 2079

ORBITAL ENERGIES
----------------

  NO   OCC          E(Eh)            E(eV)
   0   2.0000    -102.809608     -2797.5917
   1   2.0000     -78.293650     -2130.4785
   2   2.0000     -78.293603     -2130.4773
   3   2.0000     -10.632816      -289.3336
   4   2.0000     -10.632657      -289.3293
   5   2.0000     -10.630268      -289.2643
   6   2.0000     -10.630026      -289.2577
   7   2.0000     -10.629481      -289.2429
   8   2.0000     -10.629245      -289.2365
   9   2.0000     -10.629215      -289.2357
  10   2.0000     -10.628978      -289.2292
  11   2.0000     -10.628550      -289.2175
  12   2.0000     -10.628466      -289.2153
  13   2.0000     -10.627345      -289.1848
  14   2.0000     -10.627336      -289.1845
  15   2.0000     -10.627224      -289.1815
  16   2.0000     -10.627110      -289.1784
  17   2.0000     -10.626760      -289.1688
  18   2.0000     -10.626566      -289.1636
  19   2.0000     -10.625838      -289.1437
  20   2.0000     -10.625630      -289.1381
  21   2.0000     -10.625298      -289.1291
  22   2.0000     -10.625075      -289.1230
  23   2.0000     -10.624272      -289.1011
  24   2.0000     -10.624113      -289.0968
  25   2.0000     -10.623915      -289.0914
  26   2.0000     -10.623671      -289.0848
  27   2.0000     -10.623294      -289.0745
  28   2.0000     -10.623065      -289.0683
  29   2.0000     -10.622914      -289.0642
  30   2.0000     -10.622686      -289.0580
  31   2.0000     -10.621409      -289.0232
  32   2.0000     -10.621101      -289.0148
  33   2.0000     -10.621079      -289.0142
  34   2.0000     -10.620707      -289.0041
  35   2.0000     -10.620462      -288.9975
  36   2.0000     -10.620159      -288.9892
  37   2.0000     -10.619505      -288.9714
  38   2.0000     -10.619113      -288.9608
  39   2.0000      -9.815719      -267.0993
  40   2.0000      -7.452791      -202.8008
  41   2.0000      -7.451543      -202.7668
  42   2.0000      -7.450710      -202.7441
  43   2.0000      -6.960978      -189.4178
  44   2.0000      -6.960919      -189.4162
  45   2.0000      -5.012378      -136.3938
  46   2.0000      -5.012321      -136.3922
  47   2.0000      -5.012275      -136.3909
  48   2.0000      -5.012218      -136.3894
  49   2.0000      -5.010035      -136.3300
  50   2.0000      -5.009974      -136.3283
  51   2.0000      -3.462325       -94.2147
  52   2.0000      -2.161491       -58.8172
  53   2.0000      -2.157099       -58.6977
  54   2.0000      -2.145711       -58.3878
  55   2.0000      -0.991715       -26.9859
  56   2.0000      -0.991550       -26.9814
  57   2.0000      -0.982042       -26.7227
  58   2.0000      -0.981959       -26.7205
  59   2.0000      -0.979084       -26.6422
  60   2.0000      -0.979022       -26.6405
  61   2.0000      -0.894799       -24.3487
  62   2.0000      -0.893895       -24.3241
  63   2.0000      -0.867133       -23.5959
  64   2.0000      -0.866999       -23.5922
  65   2.0000      -0.863414       -23.4947
  66   2.0000      -0.863082       -23.4857
  67   2.0000      -0.861489       -23.4423
  68   2.0000      -0.861193       -23.4343
  69   2.0000      -0.858551       -23.3624
  70   2.0000      -0.858429       -23.3590
  71   2.0000      -0.856562       -23.3082
  72   2.0000      -0.856499       -23.3065
  73   2.0000      -0.829101       -22.5610
  74   2.0000      -0.758193       -20.6315
  75   2.0000      -0.755406       -20.5556
  76   2.0000      -0.707675       -19.2568
  77   2.0000      -0.707326       -19.2473
  78   2.0000      -0.703855       -19.1529
  79   2.0000      -0.703374       -19.1398
  80   2.0000      -0.701815       -19.0974
  81   2.0000      -0.701492       -19.0886
  82   2.0000      -0.692230       -18.8365
  83   2.0000      -0.692189       -18.8354
  84   2.0000      -0.689819       -18.7709
  85   2.0000      -0.689753       -18.7691
  86   2.0000      -0.650512       -17.7013
  87   2.0000      -0.647503       -17.6194
  88   2.0000      -0.602525       -16.3955
  89   2.0000      -0.602122       -16.3846
  90   2.0000      -0.598468       -16.2851
  91   2.0000      -0.598221       -16.2784
  92   2.0000      -0.579889       -15.7796
  93   2.0000      -0.577292       -15.7089
  94   2.0000      -0.537983       -14.6393
  95   2.0000      -0.537922       -14.6376
  96   2.0000      -0.537533       -14.6270
  97   2.0000      -0.536028       -14.5861
  98   2.0000      -0.533532       -14.5181
  99   2.0000      -0.532289       -14.4843
 100   2.0000      -0.526410       -14.3243
 101   2.0000      -0.526179       -14.3181
 102   2.0000      -0.525425       -14.2975
 103   2.0000      -0.525243       -14.2926
 104   2.0000      -0.519008       -14.1229
 105   2.0000      -0.517444       -14.0804
 106   2.0000      -0.500820       -13.6280
 107   2.0000      -0.499130       -13.5820
 108   2.0000      -0.494695       -13.4613
 109   2.0000      -0.494445       -13.4545
 110   2.0000      -0.493854       -13.4385
 111   2.0000      -0.493127       -13.4187
 112   2.0000      -0.484763       -13.1911
 113   2.0000      -0.484666       -13.1884
 114   2.0000      -0.480283       -13.0692
 115   2.0000      -0.479731       -13.0542
 116   2.0000      -0.455338       -12.3904
 117   2.0000      -0.442494       -12.0409
 118   2.0000      -0.436036       -11.8651
 119   2.0000      -0.433359       -11.7923
 120   2.0000      -0.430903       -11.7255
 121   2.0000      -0.430454       -11.7133
 122   2.0000      -0.430231       -11.7072
 123   2.0000      -0.427487       -11.6325
 124   2.0000      -0.422673       -11.5015
 125   2.0000      -0.416641       -11.3374
 126   2.0000      -0.415220       -11.2987
 127   2.0000      -0.411729       -11.2037
 128   2.0000      -0.411390       -11.1945
 129   2.0000      -0.410327       -11.1656
 130   2.0000      -0.409638       -11.1468
 131   2.0000      -0.398153       -10.8343
 132   2.0000      -0.396611       -10.7923
 133   2.0000      -0.392928       -10.6921
 134   2.0000      -0.392755       -10.6874
 135   2.0000      -0.389572       -10.6008
 136   2.0000      -0.375156       -10.2085
 137   2.0000      -0.350265        -9.5312
 138   2.0000      -0.342203        -9.3118
 139   2.0000      -0.337696        -9.1892
 140   2.0000      -0.317922        -8.6511
 141   2.0000      -0.309388        -8.4189
 142   2.0000      -0.303254        -8.2520
 143   2.0000      -0.302752        -8.2383
 144   2.0000      -0.301335        -8.1997
 145   2.0000      -0.301012        -8.1909
 146   2.0000      -0.299112        -8.1392
 147   2.0000      -0.298028        -8.1097
 148   2.0000      -0.292907        -7.9704
 149   2.0000      -0.292271        -7.9531
 150   2.0000      -0.291459        -7.9310
 151   2.0000      -0.289654        -7.8819
 152   2.0000      -0.288270        -7.8442
 153   2.0000      -0.277861        -7.5610
 154   2.0000      -0.276824        -7.5328
 155   2.0000      -0.260423        -7.0865
 156   0.0000      -0.003227        -0.0878
 157   0.0000       0.010579         0.2879
 158   0.0000       0.017038         0.4636
 159   0.0000       0.017630         0.4797
 160   0.0000       0.019547         0.5319

MULLIKEN ATOMIC CHARGES
-----------------------
   0 Rh:   -1.344695
   1 P :    2.380434
   2 P :    2.397618
   3 H :   -0.083029
   4 H :   -0.067065
   5 Cl:   -0.906188
   6 C :    0.039597
   7 C :    0.143070
   8 C :    0.191643
   9 C :    0.093959
  10 C :    0.151771
  11 C :    0.110167
  12 C :    0.271808
  13 C :   -0.304895
  14 C :    0.104793
  15 C :   -0.389195
  16 C :   -0.084648
  17 H :    0.044976
  18 H :   -0.050264
  19 H :   -0.023193
  20 H :   -0.038051
  21 H :   -0.012067
  22 C :   -0.052812
  23 C :   -0.342226
  24 C :    0.095608
  25 C :   -0.290141
  26 C :    0.144339
  27 H :   -0.107726
  28 H :   -0.058013
  29 H :   -0.026546
  30 H :   -0.059304
  31 H :    0.025573
  32 C :   -0.157815
  33 C :   -0.389434
  34 C :    0.086728
  35 C :   -0.284422
  36 C :    0.220918
  37 H :    0.184841
  38 H :   -0.039149
  39 H :   -0.025386
  40 H :   -0.050533
  41 H :    0.026233
  42 C :    0.271718
  43 C :   -0.299658
  44 C :    0.103042
  45 C :   -0.399009
  46 C :   -0.049760
  47 H :    0.042786
  48 H :   -0.052180
  49 H :   -0.024407
  50 H :   -0.039942
  51 H :   -0.059820
  52 C :    0.236295
  53 C :   -0.294446
  54 C :    0.099526
  55 C :   -0.351701
  56 C :   -0.168592
  57 H :    0.035599
  58 H :   -0.051239
  59 H :   -0.022502
  60 H :   -0.042408
  61 H :    0.208047
  62 C :   -0.054888
  63 C :   -0.341638
  64 C :    0.091793
  65 C :   -0.301141
  66 C :    0.131921
  67 H :   -0.075578
  68 H :   -0.056002
  69 H :   -0.025359
  70 H :   -0.057355
  71 H :    0.019617
Sum of atomic charges:   -0.0000000

LOEWDIN ATOMIC CHARGES
----------------------
   0 Rh:    0.229355
   1 P :    0.968396
   2 P :    0.967785
   3 H :   -0.107733
   4 H :   -0.110188
   5 Cl:   -0.078983
   6 C :   -0.313711
   7 C :   -0.305592
   8 C :   -0.337599
   9 C :   -0.305024
  10 C :   -0.334712
  11 C :   -0.315401
  12 C :    0.010033
  13 C :    0.020934
  14 C :    0.015709
  15 C :    0.019532
  16 C :   -0.021200
  17 H :   -0.003895
  18 H :    0.001011
  19 H :   -0.000256
  20 H :    0.000666
  21 H :   -0.029394
  22 C :   -0.024778
  23 C :    0.022922
  24 C :    0.018297
  25 C :    0.021209
  26 C :    0.004994
  27 H :   -0.009286
  28 H :    0.001429
  29 H :   -0.000531
  30 H :    0.000263
  31 H :    0.001241
  32 C :   -0.013963
  33 C :    0.021999
  34 C :    0.014556
  35 C :    0.017295
  36 C :    0.007968
  37 H :   -0.069886
  38 H :    0.002043
  39 H :   -0.000810
  40 H :   -0.000244
  41 H :   -0.005733
  42 C :    0.011546
  43 C :    0.020942
  44 C :    0.015414
  45 C :    0.019230
  46 C :   -0.023057
  47 H :   -0.004637
  48 H :    0.000922
  49 H :   -0.000396
  50 H :    0.000659
  51 H :   -0.025133
  52 C :    0.005844
  53 C :    0.017123
  54 C :    0.014638
  55 C :    0.022414
  56 C :   -0.011646
  57 H :   -0.005450
  58 H :   -0.000266
  59 H :   -0.000812
  60 H :    0.002038
  61 H :   -0.072063
  62 C :   -0.024406
  63 C :    0.023124
  64 C :    0.018325
  65 C :    0.021180
  66 C :    0.005474
  67 H :   -0.012397
  68 H :    0.001436
  69 H :   -0.000471
  70 H :    0.000279
  71 H :    0.001426

  Mayer bond orders larger than 0.100000
B(  0-Rh,  1-P ) :   0.3681 B(  0-Rh,  2-P ) :   0.3183 B(  0-Rh,  3-H ) :   1.1042
B(  0-Rh,  4-H ) :   1.0946 B(  0-Rh,  5-Cl) :   0.7658 B(  0-Rh,  7-C ) :   0.1029
B(  0-Rh,  8-C ) :   0.1138 B(  0-Rh,  9-C ) :   0.1126 B(  0-Rh, 10-C ) :   0.1143
B(  0-Rh, 16-C ) :   0.1327 B(  0-Rh, 22-C ) :   0.1123 B(  0-Rh, 46-C ) :   0.1281
B(  0-Rh, 62-C ) :   0.1332 B(  0-Rh, 66-C ) :  -0.1017 B(  1-P ,  2-P ) :   0.3585
B(  1-P ,  3-H ) :  -0.2038 B(  1-P ,  5-Cl) :  -0.2999 B(  1-P ,  9-C ) :   0.4419
B(  1-P , 10-C ) :   0.5868 B(  1-P , 11-C ) :   0.4024 B(  2-P ,  3-H ) :  -0.1254
B(  2-P ,  4-H ) :  -0.2240 B(  2-P ,  5-Cl) :  -0.3037 B(  2-P ,  6-C ) :   0.4668
B(  2-P ,  7-C ) :   0.4496 B(  2-P ,  8-C ) :   0.5429 B(  3-H ,  4-H ) :   0.1079
B(  5-Cl, 22-C ) :   0.1719 B(  5-Cl, 37-H ) :  -0.1024 B(  5-Cl, 61-H ) :  -0.1188
B(  5-Cl, 62-C ) :   0.1640 B(  6-C ,  7-C ) :   0.4434 B(  6-C ,  8-C ) :   0.3282
B(  6-C , 12-C ) :   1.0186 B(  6-C , 16-C ) :   1.1866 B(  6-C , 21-H ) :  -0.1188
B(  6-C , 32-C ) :  -0.1725 B(  7-C ,  8-C ) :   0.3846 B(  7-C , 32-C ) :   1.2133
B(  7-C , 33-C ) :  -0.1618 B(  7-C , 35-C ) :  -0.1525 B(  7-C , 36-C ) :   0.7806
B(  8-C , 16-C ) :  -0.1770 B(  8-C , 22-C ) :   1.2218 B(  8-C , 25-C ) :  -0.1268
B(  8-C , 26-C ) :   0.9276 B(  9-C , 10-C ) :   0.4356 B(  9-C , 11-C ) :   0.4572
B(  9-C , 42-C ) :  -0.1005 B(  9-C , 52-C ) :   0.7750 B(  9-C , 53-C ) :  -0.1473
B(  9-C , 55-C ) :  -0.1471 B(  9-C , 56-C ) :   1.2048 B( 10-C , 11-C ) :   0.3139
B( 10-C , 46-C ) :  -0.1819 B( 10-C , 62-C ) :   1.2597 B( 10-C , 65-C ) :  -0.1235
B( 10-C , 66-C ) :   0.9480 B( 11-C , 42-C ) :   0.9520 B( 11-C , 43-C ) :  -0.1045
B( 11-C , 46-C ) :   1.1829 B( 11-C , 51-H ) :  -0.1172 B( 11-C , 56-C ) :  -0.1607
B( 12-C , 13-C ) :   1.1051 B( 12-C , 17-H ) :   1.0424 B( 12-C , 18-H ) :  -0.1053
B( 12-C , 32-C ) :   0.1171 B( 13-C , 14-C ) :   1.0860 B( 13-C , 15-C ) :   0.1134
B( 13-C , 17-H ) :  -0.1392 B( 13-C , 18-H ) :   1.1782 B( 13-C , 19-H ) :  -0.1284
B( 14-C , 15-C ) :   1.0844 B( 14-C , 18-H ) :  -0.1256 B( 14-C , 19-H ) :   1.1533
B( 14-C , 20-H ) :  -0.1225 B( 15-C , 16-C ) :   1.1945 B( 15-C , 19-H ) :  -0.1240
B( 15-C , 20-H ) :   1.1634 B( 15-C , 21-H ) :  -0.1157 B( 16-C , 20-H ) :  -0.1053
B( 16-C , 21-H ) :   1.0180 B( 16-C , 26-C ) :   0.1489 B( 22-C , 23-C ) :   1.1657
B( 22-C , 27-H ) :   1.0485 B( 23-C , 24-C ) :   1.1059 B( 23-C , 27-H ) :  -0.1633
B( 23-C , 28-H ) :   1.1692 B( 23-C , 29-H ) :  -0.1181 B( 24-C , 25-C ) :   1.1475
B( 24-C , 28-H ) :  -0.1290 B( 24-C , 29-H ) :   1.1442 B( 24-C , 30-H ) :  -0.1255
B( 25-C , 26-C ) :   1.1338 B( 25-C , 29-H ) :  -0.1162 B( 25-C , 30-H ) :   1.1757
B( 25-C , 31-H ) :  -0.1309 B( 26-C , 31-H ) :   1.0697 B( 26-C , 36-C ) :  -0.1764
B( 32-C , 33-C ) :   1.2781 B( 32-C , 35-C ) :   0.1195 B( 32-C , 36-C ) :  -0.1079
B( 32-C , 37-H ) :   0.9542 B( 32-C , 38-H ) :  -0.1087 B( 33-C , 34-C ) :   1.0564
B( 33-C , 37-H ) :  -0.1631 B( 33-C , 38-H ) :   1.1829 B( 33-C , 39-H ) :  -0.1266
B( 34-C , 35-C ) :   1.1011 B( 34-C , 38-H ) :  -0.1282 B( 34-C , 39-H ) :   1.1547
B( 34-C , 40-H ) :  -0.1306 B( 35-C , 36-C ) :   1.1753 B( 35-C , 39-H ) :  -0.1215
B( 35-C , 40-H ) :   1.1730 B( 35-C , 41-H ) :  -0.1489 B( 36-C , 41-H ) :   1.0510
B( 42-C , 43-C ) :   1.1206 B( 42-C , 47-H ) :   1.0498 B( 42-C , 48-H ) :  -0.1068
B( 42-C , 56-C ) :   0.1086 B( 43-C , 44-C ) :   1.1034 B( 43-C , 45-C ) :   0.1099
B( 43-C , 47-H ) :  -0.1398 B( 43-C , 48-H ) :   1.1810 B( 43-C , 49-H ) :  -0.1268
B( 44-C , 45-C ) :   1.0867 B( 44-C , 48-H ) :  -0.1256 B( 44-C , 49-H ) :   1.1526
B( 44-C , 50-H ) :  -0.1251 B( 45-C , 46-C ) :   1.1904 B( 45-C , 49-H ) :  -0.1234
B( 45-C , 50-H ) :   1.1680 B( 45-C , 51-H ) :  -0.1284 B( 46-C , 50-H ) :  -0.1002
B( 46-C , 51-H ) :   1.0305 B( 46-C , 66-C ) :   0.1628 B( 52-C , 53-C ) :   1.1621
B( 52-C , 57-H ) :   1.0402 B( 52-C , 62-C ) :   0.1108 B( 52-C , 66-C ) :  -0.1645
B( 53-C , 54-C ) :   1.1028 B( 53-C , 56-C ) :   0.1171 B( 53-C , 57-H ) :  -0.1494
B( 53-C , 58-H ) :   1.1764 B( 53-C , 59-H ) :  -0.1214 B( 54-C , 55-C ) :   1.0548
B( 54-C , 58-H ) :  -0.1311 B( 54-C , 59-H ) :   1.1509 B( 54-C , 60-H ) :  -0.1334
B( 55-C , 56-C ) :   1.2675 B( 55-C , 59-H ) :  -0.1240 B( 55-C , 60-H ) :   1.1836
B( 55-C , 61-H ) :  -0.1705 B( 56-C , 60-H ) :  -0.1034 B( 56-C , 61-H ) :   0.9397
B( 62-C , 63-C ) :   1.1627 B( 62-C , 65-C ) :   0.1108 B( 62-C , 67-H ) :   1.0287
B( 63-C , 64-C ) :   1.0999 B( 63-C , 67-H ) :  -0.1603 B( 63-C , 68-H ) :   1.1701
B( 63-C , 69-H ) :  -0.1206 B( 64-C , 65-C ) :   1.1427 B( 64-C , 68-H ) :  -0.1265
B( 64-C , 69-H ) :   1.1447 B( 64-C , 70-H ) :  -0.1275 B( 65-C , 66-C ) :   1.1272
B( 65-C , 69-H ) :  -0.1158 B( 65-C , 70-H ) :   1.1766 B( 65-C , 71-H ) :  -0.1308
B( 66-C , 71-H ) :   1.0637

MP2 TOTAL ENERGY:    -2643.569130357 Eh
Dispersion correction           -0.108787570
FINAL SINGLE POINT ENERGY     -2643.677917926399

DIPOLE MOMENT
-------------
                                X             Y             Z
Electronic contribution:      0.23814      -6.55914      -2.79193
Nuclear contribution   :     -0.23889       7.84350       2.82850
                        -----------------------------------------
Total Dipole Moment    :     -0.00074       1.28437       0.03658
                        -----------------------------------------
Magnitude (a.u.)       :      1.28489
Magnitude (Debye)      :      3.26593

Rotational constants in cm-1:     0.003375     0.001837     0.001796
Rotational constants in MHz :   101.191459    55.075356    53.852243

                             ****ORCA TERMINATED NORMALLY****
TOTAL RUN TIME: 0 days 0 hours 30 minutes 21 seconds 760 msec
