                         Program Version 4.2.0 -  RELEASE  -
|  1> #
|  2> # MOR21_mecn ri-B2PLYP-D3BJ/Def2-TZVPPD
|  3> #
|  4> ! rijk ri-b2plyp d3bj def2-tzvppd def2/jk def2-tzvppd/c grid4 nofinalgrid
|  5>
|  6> *xyz 0 1
|  7> N        1.434594    0.083513   -0.053227
|  8> C        0.278345    0.016206   -0.010325
|  9> C       -1.176577   -0.068494    0.043652
| 10> H       -1.556498   -0.572512   -0.849824
| 11> H       -1.609231    0.934929    0.094890
| 12> H       -1.487035   -0.633283    0.927565
| 13> *
| 14>
| 15> %maxcore 5000
| 16>
| 17> %pal
| 18> nprocs = 24
| 19> end
| 20>
| 21>
| 22>                          ****END OF INPUT****

CARTESIAN COORDINATES (ANGSTROEM)
---------------------------------
  N      1.434594    0.083513   -0.053227
  C      0.278345    0.016206   -0.010325
  C     -1.176577   -0.068494    0.043652
  H     -1.556498   -0.572512   -0.849824
  H     -1.609231    0.934929    0.094890
  H     -1.487035   -0.633283    0.927565

 Total Charge           Charge          ....    0
 Multiplicity           Mult            ....    1
 Number of Electrons    NEL             ....   22
 Basis Dimension        Dim             ....  162

ORBITAL ENERGIES
----------------

  NO   OCC          E(Eh)            E(eV)
   0   2.0000     -14.843565      -403.9139
   1   2.0000     -10.671974      -290.3992
   2   2.0000     -10.663332      -290.1640
   3   2.0000      -1.039350       -28.2821
   4   2.0000      -0.890874       -24.2419
   5   2.0000      -0.596762       -16.2387
   6   2.0000      -0.537886       -14.6366
   7   2.0000      -0.537883       -14.6365
   8   2.0000      -0.447839       -12.1863
   9   2.0000      -0.389344       -10.5946
  10   2.0000      -0.389344       -10.5946
  11   0.0000       0.018919         0.5148
  12   0.0000       0.067083         1.8254
  13   0.0000       0.076642         2.0855
  14   0.0000       0.076644         2.0856
  15   0.0000       0.112048         3.0490

MULLIKEN ATOMIC CHARGES
-----------------------
   0 N :   -0.245492
   1 C :    0.043504
   2 C :   -0.116676
   3 H :    0.106255
   4 H :    0.106321
   5 H :    0.106089
Sum of atomic charges:    0.0000000

LOEWDIN ATOMIC CHARGES
----------------------
   0 N :    0.114577
   1 C :   -0.232158
   2 C :    0.131536
   3 H :   -0.004651
   4 H :   -0.004651
   5 H :   -0.004653

  Mayer bond orders larger than 0.100000
B(  0-N ,  1-C ) :   2.5077 B(  1-C ,  2-C ) :   0.8900 B(  2-C ,  3-H ) :   0.9870
B(  2-C ,  4-H ) :   0.9868 B(  2-C ,  5-H ) :   0.9871

MP2 TOTAL ENERGY:     -132.698721891 Eh
Dispersion correction           -0.002100235
FINAL SINGLE POINT ENERGY      -132.700822125871

DIPOLE MOMENT
-------------
                                X             Y             Z
Electronic contribution:      3.05167       0.17766      -0.11322
Nuclear contribution   :     -4.67428      -0.27212       0.17343
                        -----------------------------------------
Total Dipole Moment    :     -1.62261      -0.09446       0.06021
                        -----------------------------------------
Magnitude (a.u.)       :      1.62647
Magnitude (Debye)      :      4.13416

Rotational constants in cm-1:     5.279638     0.306561     0.306561
Rotational constants in MHz : 158279.554854  9190.460473  9190.452676

                             ****ORCA TERMINATED NORMALLY****
TOTAL RUN TIME: 0 days 0 hours 0 minutes 4 seconds 261 msec
