                         Program Version 4.2.0 -  RELEASE  -
|  1> #
|  2> # MOR36_pr37 ri-B2PLYP-D3BJ/Def2-TZVPPD
|  3> #
|  4> ! rijk ri-b2plyp d3bj def2-tzvppd def2/jk def2-tzvppd/c grid4 nofinalgrid
|  5>
|  6> *xyz 0 1
|  7> Mo       0.000106   -0.000070   -0.471377
|  8> C        0.514398   -1.514915   -1.646050
|  9> C        1.055079    1.202350   -1.646249
| 10> C       -1.568474    0.311983   -1.646660
| 11> O       -2.484520    0.493946   -2.346732
| 12> O        0.814970   -2.399453   -2.345765
| 13> O        1.670957    1.904692   -2.346079
| 14> N       -1.133555   -1.291008    0.811792
| 15> N       -0.551576    1.627166    0.811584
| 16> N        1.684684   -0.335905    0.812231
| 17> C        2.623715   -0.523292    1.470917
| 18> C       -0.858944    2.534303    1.469905
| 19> C       -1.765652   -2.010491    1.470244
| 20> C       -2.579903   -2.936733    2.238371
| 21> H       -3.631237   -2.631169    2.207389
| 22> H       -2.252645   -2.962558    3.282907
| 23> H       -2.496617   -3.945451    1.819577
| 24> C       -1.254401    3.702555    2.237857
| 25> H       -0.464690    4.460832    2.206160
| 26> H       -1.439592    3.432273    3.282594
| 27> H       -2.170183    4.133961    1.819442
| 28> C        3.832875   -0.764956    2.239344
| 29> H        4.094105   -1.828181    2.208653
| 30> H        3.691346   -0.468421    3.283785
| 31> H        4.664793   -0.188419    1.820591
| 32> *
| 33>
| 34> %maxcore 5000
| 35>
| 36> %pal
| 37> nprocs = 24
| 38> end
| 39>
| 40>
| 41>                          ****END OF INPUT****

CARTESIAN COORDINATES (ANGSTROEM)
---------------------------------
  Mo     0.000106   -0.000070   -0.471377
  C      0.514398   -1.514915   -1.646050
  C      1.055079    1.202350   -1.646249
  C     -1.568474    0.311983   -1.646660
  O     -2.484520    0.493946   -2.346732
  O      0.814970   -2.399453   -2.345765
  O      1.670957    1.904692   -2.346079
  N     -1.133555   -1.291008    0.811792
  N     -0.551576    1.627166    0.811584
  N      1.684684   -0.335905    0.812231
  C      2.623715   -0.523292    1.470917
  C     -0.858944    2.534303    1.469905
  C     -1.765652   -2.010491    1.470244
  C     -2.579903   -2.936733    2.238371
  H     -3.631237   -2.631169    2.207389
  H     -2.252645   -2.962558    3.282907
  H     -2.496617   -3.945451    1.819577
  C     -1.254401    3.702555    2.237857
  H     -0.464690    4.460832    2.206160
  H     -1.439592    3.432273    3.282594
  H     -2.170183    4.133961    1.819442
  C      3.832875   -0.764956    2.239344
  H      4.094105   -1.828181    2.208653
  H      3.691346   -0.468421    3.283785
  H      4.664793   -0.188419    1.820591

 Total Charge           Charge          ....    0
 Multiplicity           Mult            ....    1
 Number of Electrons    NEL             ....  122
 Basis Dimension        Dim             ....  773

ORBITAL ENERGIES
----------------

  NO   OCC          E(Eh)            E(eV)
   0   2.0000     -19.728015      -536.8266
   1   2.0000     -19.728013      -536.8265
   2   2.0000     -19.728011      -536.8265
   3   2.0000     -14.873857      -404.7382
   4   2.0000     -14.873855      -404.7382
   5   2.0000     -14.873849      -404.7380
   6   2.0000     -10.682321      -290.6807
   7   2.0000     -10.682319      -290.6807
   8   2.0000     -10.682319      -290.6807
   9   2.0000     -10.679796      -290.6120
  10   2.0000     -10.679796      -290.6120
  11   2.0000     -10.679795      -290.6120
  12   2.0000     -10.665813      -290.2315
  13   2.0000     -10.665806      -290.2313
  14   2.0000     -10.665804      -290.2313
  15   2.0000      -2.683023       -73.0088
  16   2.0000      -1.625543       -44.2333
  17   2.0000      -1.622108       -44.1398
  18   2.0000      -1.622108       -44.1398
  19   2.0000      -1.198630       -32.6164
  20   2.0000      -1.197950       -32.5979
  21   2.0000      -1.197948       -32.5978
  22   2.0000      -1.064126       -28.9563
  23   2.0000      -1.061535       -28.8858
  24   2.0000      -1.061534       -28.8858
  25   2.0000      -0.901188       -24.5226
  26   2.0000      -0.900734       -24.5102
  27   2.0000      -0.900733       -24.5102
  28   2.0000      -0.625568       -17.0226
  29   2.0000      -0.613509       -16.6944
  30   2.0000      -0.613507       -16.6944
  31   2.0000      -0.599280       -16.3072
  32   2.0000      -0.587967       -15.9994
  33   2.0000      -0.587966       -15.9994
  34   2.0000      -0.547528       -14.8990
  35   2.0000      -0.546522       -14.8716
  36   2.0000      -0.546521       -14.8716
  37   2.0000      -0.545669       -14.8484
  38   2.0000      -0.545669       -14.8484
  39   2.0000      -0.545115       -14.8333
  40   2.0000      -0.541827       -14.7439
  41   2.0000      -0.524129       -14.2623
  42   2.0000      -0.524126       -14.2622
  43   2.0000      -0.466408       -12.6916
  44   2.0000      -0.462537       -12.5863
  45   2.0000      -0.462536       -12.5862
  46   2.0000      -0.452550       -12.3145
  47   2.0000      -0.452549       -12.3145
  48   2.0000      -0.448790       -12.2122
  49   2.0000      -0.444395       -12.0926
  50   2.0000      -0.430247       -11.7076
  51   2.0000      -0.430247       -11.7076
  52   2.0000      -0.418069       -11.3762
  53   2.0000      -0.418068       -11.3762
  54   2.0000      -0.415506       -11.3065
  55   2.0000      -0.406033       -11.0487
  56   2.0000      -0.403199       -10.9716
  57   2.0000      -0.403197       -10.9715
  58   2.0000      -0.188121        -5.1190
  59   2.0000      -0.184721        -5.0265
  60   2.0000      -0.184720        -5.0265
  61   0.0000       0.002786         0.0758
  62   0.0000       0.016558         0.4506
  63   0.0000       0.016570         0.4509
  64   0.0000       0.047603         1.2953
  65   0.0000       0.047608         1.2955

MULLIKEN ATOMIC CHARGES
-----------------------
   0 Mo:   -0.293896
   1 C :    0.343027
   2 C :    0.341514
   3 C :    0.340826
   4 O :   -0.394704
   5 O :   -0.394590
   6 O :   -0.394632
   7 N :   -0.071333
   8 N :   -0.071685
   9 N :   -0.071948
  10 C :    0.294865
  11 C :    0.294523
  12 C :    0.294788
  13 C :   -0.456054
  14 H :    0.127855
  15 H :    0.125531
  16 H :    0.130113
  17 C :   -0.454708
  18 H :    0.127538
  19 H :    0.125310
  20 H :    0.130040
  21 C :   -0.455914
  22 H :    0.127953
  23 H :    0.125458
  24 H :    0.130124
Sum of atomic charges:   -0.0000000

LOEWDIN ATOMIC CHARGES
----------------------
   0 Mo:    0.424326
   1 C :   -0.248396
   2 C :   -0.248412
   3 C :   -0.248412
   4 O :    0.001092
   5 O :    0.001098
   6 O :    0.001094
   7 N :    0.056722
   8 N :    0.056731
   9 N :    0.056708
  10 C :   -0.105582
  11 C :   -0.105572
  12 C :   -0.105576
  13 C :    0.152817
  14 H :    0.001402
  15 H :   -0.002259
  16 H :    0.002766
  17 C :    0.152824
  18 H :    0.001400
  19 H :   -0.002262
  20 H :    0.002763
  21 C :    0.152813
  22 H :    0.001403
  23 H :   -0.002258
  24 H :    0.002768

  Mayer bond orders larger than 0.100000
B(  0-Mo,  1-C ) :   1.3705 B(  0-Mo,  2-C ) :   1.3696 B(  0-Mo,  3-C ) :   1.3695
B(  0-Mo,  7-N ) :   0.5696 B(  0-Mo,  8-N ) :   0.5696 B(  0-Mo,  9-N ) :   0.5707
B(  1-C ,  5-O ) :   1.8844 B(  2-C ,  6-O ) :   1.8842 B(  3-C ,  4-O ) :   1.8845
B(  7-N , 12-C ) :   2.6386 B(  8-N , 11-C ) :   2.6370 B(  9-N , 10-C ) :   2.6385
B( 10-C , 21-C ) :   0.6768 B( 11-C , 17-C ) :   0.6776 B( 12-C , 13-C ) :   0.6766
B( 13-C , 14-H ) :   1.0185 B( 13-C , 15-H ) :   1.0108 B( 13-C , 16-H ) :   1.0197
B( 17-C , 18-H ) :   1.0183 B( 17-C , 19-H ) :   1.0106 B( 17-C , 20-H ) :   1.0197
B( 21-C , 22-H ) :   1.0182 B( 21-C , 23-H ) :   1.0109 B( 21-C , 24-H ) :   1.0197

MP2 TOTAL ENERGY:     -806.307179000 Eh
Dispersion correction           -0.026012638
FINAL SINGLE POINT ENERGY      -806.333191637987

DIPOLE MOMENT
-------------
                                X             Y             Z
Electronic contribution:      0.00889      -0.00581     -40.11909
Nuclear contribution   :     -0.01011       0.00649      45.69854
                        -----------------------------------------
Total Dipole Moment    :     -0.00122       0.00069       5.57945
                        -----------------------------------------
Magnitude (a.u.)       :      5.57945
Magnitude (Debye)      :     14.18184

Rotational constants in cm-1:     0.011429     0.011429     0.011227
Rotational constants in MHz :   342.640201   342.631727   336.586559

                             ****ORCA TERMINATED NORMALLY****
TOTAL RUN TIME: 0 days 0 hours 1 minutes 7 seconds 976 msec
