                         Program Version 4.2.0 -  RELEASE  -
|  1> #
|  2> # MOR31_pr20 ri-B2PLYP-D3BJ/Def2-TZVPPD
|  3> #
|  4> ! rijk ri-b2plyp d3bj def2-tzvppd def2/jk def2-tzvppd/c grid4 nofinalgrid
|  5>
|  6> *xyz 0 1
|  7> Ir       0.002477   -0.015286    0.083430
|  8> P       -2.348177   -0.226580   -0.058132
|  9> C       -2.872702   -1.550327   -1.188803
| 10> C       -3.160695   -0.601199    1.533451
| 11> H       -2.768983   -1.545856    1.920385
| 12> H       -3.035053    2.092169    0.038161
| 13> H       -4.244853   -0.682241    1.406776
| 14> H       -2.786362    1.529395   -1.637172
| 15> H       -3.965660   -1.602102   -1.229325
| 16> H       -2.934726    0.195116    2.248250
| 17> C       -3.202684    1.268779   -0.660861
| 18> H       -2.461852   -1.335119   -2.177902
| 19> H       -4.277134    1.082313   -0.755690
| 20> H       -2.448990   -2.494963   -0.841403
| 21> P        2.371733   -0.033051   -0.048079
| 22> C        3.118147   -1.146577    1.190097
| 23> C        2.988864   -0.646513   -1.645491
| 24> H        2.993037    2.252530   -0.586719
| 25> H        4.326367    1.397945    0.228668
| 26> H        2.927925    1.991387    1.168046
| 27> C        3.242996    1.555288    0.216058
| 28> H        4.081131   -0.719105   -1.623165
| 29> H        2.539412   -1.627874   -1.816909
| 30> H        4.198017   -1.226939    1.030710
| 31> H        2.645385   -2.126625    1.084325
| 32> H        2.665924    0.027013   -2.441495
| 33> H        2.928294   -0.762471    2.196181
| 34> C        0.041875   -0.376924    1.901008
| 35> O        0.060916   -0.624538    3.028225
| 36> Cl       0.274891   -2.517433   -0.343637
| 37> C       -0.190594    2.003978    0.494123
| 38> O       -0.529496    2.399253    1.599170
| 39> Cl      -0.136178    0.364638   -2.291447
| 40> C        0.062980    3.028488   -0.607541
| 41> H        0.210382    4.010245   -0.149220
| 42> H       -0.815546    3.056386   -1.260585
| 43> H        0.900599    2.750150   -1.247819
| 44> *
| 45>
| 46> %maxcore 5000
| 47>
| 48> %pal
| 49> nprocs = 24
| 50> end
| 51>
| 52>
| 53>                          ****END OF INPUT****

CARTESIAN COORDINATES (ANGSTROEM)
---------------------------------
  Ir     0.002477   -0.015286    0.083430
  P     -2.348177   -0.226580   -0.058132
  C     -2.872702   -1.550327   -1.188803
  C     -3.160695   -0.601199    1.533451
  H     -2.768983   -1.545856    1.920385
  H     -3.035053    2.092169    0.038161
  H     -4.244853   -0.682241    1.406776
  H     -2.786362    1.529395   -1.637172
  H     -3.965660   -1.602102   -1.229325
  H     -2.934726    0.195116    2.248250
  C     -3.202684    1.268779   -0.660861
  H     -2.461852   -1.335119   -2.177902
  H     -4.277134    1.082313   -0.755690
  H     -2.448990   -2.494963   -0.841403
  P      2.371733   -0.033051   -0.048079
  C      3.118147   -1.146577    1.190097
  C      2.988864   -0.646513   -1.645491
  H      2.993037    2.252530   -0.586719
  H      4.326367    1.397945    0.228668
  H      2.927925    1.991387    1.168046
  C      3.242996    1.555288    0.216058
  H      4.081131   -0.719105   -1.623165
  H      2.539412   -1.627874   -1.816909
  H      4.198017   -1.226939    1.030710
  H      2.645385   -2.126625    1.084325
  H      2.665924    0.027013   -2.441495
  H      2.928294   -0.762471    2.196181
  C      0.041875   -0.376924    1.901008
  O      0.060916   -0.624538    3.028225
  Cl     0.274891   -2.517433   -0.343637
  C     -0.190594    2.003978    0.494123
  O     -0.529496    2.399253    1.599170
  Cl    -0.136178    0.364638   -2.291447
  C      0.062980    3.028488   -0.607541
  H      0.210382    4.010245   -0.149220
  H     -0.815546    3.056386   -1.260585
  H      0.900599    2.750150   -1.247819

 Total Charge           Charge          ....    0
 Multiplicity           Mult            ....    1
 Number of Electrons    NEL             ....  172
 Basis Dimension        Dim             .... 1027

ORBITAL ENERGIES
----------------

  NO   OCC          E(Eh)            E(eV)
   0   2.0000    -102.839033     -2798.3923
   1   2.0000    -102.820510     -2797.8883
   2   2.0000     -78.315855     -2131.0828
   3   2.0000     -78.315369     -2131.0695
   4   2.0000     -19.822397      -539.3949
   5   2.0000     -19.708724      -536.3016
   6   2.0000     -10.774318      -293.1841
   7   2.0000     -10.706544      -291.3399
   8   2.0000     -10.637099      -289.4502
   9   2.0000     -10.633950      -289.3645
  10   2.0000     -10.630508      -289.2708
  11   2.0000     -10.629136      -289.2335
  12   2.0000     -10.621331      -289.0211
  13   2.0000     -10.619774      -288.9787
  14   2.0000     -10.608645      -288.6759
  15   2.0000      -9.845363      -267.9060
  16   2.0000      -9.826075      -267.3811
  17   2.0000      -7.483256      -203.6297
  18   2.0000      -7.480388      -203.5517
  19   2.0000      -7.480227      -203.5473
  20   2.0000      -7.463738      -203.0986
  21   2.0000      -7.461229      -203.0304
  22   2.0000      -7.461115      -203.0273
  23   2.0000      -6.982749      -190.0103
  24   2.0000      -6.982283      -189.9976
  25   2.0000      -5.034165      -136.9866
  26   2.0000      -5.033843      -136.9778
  27   2.0000      -5.033678      -136.9733
  28   2.0000      -5.033364      -136.9648
  29   2.0000      -5.032403      -136.9386
  30   2.0000      -5.031988      -136.9273
  31   2.0000      -3.967112      -107.9506
  32   2.0000      -2.246805       -61.1387
  33   2.0000      -2.236353       -60.8543
  34   2.0000      -2.230664       -60.6994
  35   2.0000      -1.296100       -35.2687
  36   2.0000      -1.175552       -31.9884
  37   2.0000      -0.909140       -24.7390
  38   2.0000      -0.905291       -24.6342
  39   2.0000      -0.865495       -23.5513
  40   2.0000      -0.840252       -22.8644
  41   2.0000      -0.837777       -22.7971
  42   2.0000      -0.823190       -22.4001
  43   2.0000      -0.822335       -22.3769
  44   2.0000      -0.815831       -22.1999
  45   2.0000      -0.814216       -22.1559
  46   2.0000      -0.697042       -18.9675
  47   2.0000      -0.656280       -17.8583
  48   2.0000      -0.640919       -17.4403
  49   2.0000      -0.623111       -16.9557
  50   2.0000      -0.590656       -16.0726
  51   2.0000      -0.559695       -15.2301
  52   2.0000      -0.553164       -15.0523
  53   2.0000      -0.540331       -14.7031
  54   2.0000      -0.536126       -14.5887
  55   2.0000      -0.526620       -14.3301
  56   2.0000      -0.522550       -14.2193
  57   2.0000      -0.519567       -14.1381
  58   2.0000      -0.518194       -14.1008
  59   2.0000      -0.513949       -13.9853
  60   2.0000      -0.505105       -13.7446
  61   2.0000      -0.502377       -13.6704
  62   2.0000      -0.493938       -13.4407
  63   2.0000      -0.489445       -13.3185
  64   2.0000      -0.488790       -13.3007
  65   2.0000      -0.480704       -13.0806
  66   2.0000      -0.472607       -12.8603
  67   2.0000      -0.471507       -12.8304
  68   2.0000      -0.447090       -12.1659
  69   2.0000      -0.436877       -11.8880
  70   2.0000      -0.429461       -11.6862
  71   2.0000      -0.428016       -11.6469
  72   2.0000      -0.419827       -11.4241
  73   2.0000      -0.417740       -11.3673
  74   2.0000      -0.412990       -11.2380
  75   2.0000      -0.389981       -10.6119
  76   2.0000      -0.383906       -10.4466
  77   2.0000      -0.372080       -10.1248
  78   2.0000      -0.366283        -9.9671
  79   2.0000      -0.363959        -9.9038
  80   2.0000      -0.332925        -9.0593
  81   2.0000      -0.312167        -8.4945
  82   2.0000      -0.304419        -8.2837
  83   2.0000      -0.299188        -8.1413
  84   2.0000      -0.296619        -8.0714
  85   2.0000      -0.272751        -7.4219
  86   0.0000       0.015515         0.4222
  87   0.0000       0.016187         0.4405
  88   0.0000       0.017473         0.4755
  89   0.0000       0.022317         0.6073
  90   0.0000       0.037293         1.0148

MULLIKEN ATOMIC CHARGES
-----------------------
   0 Ir:    1.332851
   1 P :    0.949522
   2 C :   -0.615429
   3 C :   -0.573619
   4 H :    0.106560
   5 H :    0.080735
   6 H :    0.170494
   7 H :    0.104177
   8 H :    0.181756
   9 H :    0.094164
  10 C :   -0.547286
  11 H :    0.100326
  12 H :    0.166508
  13 H :    0.132250
  14 P :    0.819321
  15 C :   -0.595852
  16 C :   -0.565073
  17 H :    0.107699
  18 H :    0.168310
  19 H :    0.072966
  20 C :   -0.498218
  21 H :    0.187918
  22 H :    0.092023
  23 H :    0.171024
  24 H :    0.143056
  25 H :    0.118678
  26 H :    0.080986
  27 C :    0.344872
  28 O :   -0.443925
  29 Cl:   -0.707252
  30 C :    0.513999
  31 O :   -0.670988
  32 Cl:   -0.697508
  33 C :   -0.628769
  34 H :    0.067136
  35 H :    0.127443
  36 H :    0.109144
Sum of atomic charges:   -0.0000000

LOEWDIN ATOMIC CHARGES
----------------------
   0 Ir:    0.511441
   1 P :    0.793292
   2 C :   -0.036809
   3 C :    0.004509
   4 H :   -0.042868
   5 H :   -0.047141
   6 H :   -0.042122
   7 H :   -0.067889
   8 H :   -0.042197
   9 H :   -0.042981
  10 C :   -0.002259
  11 H :   -0.073384
  12 H :   -0.041552
  13 H :   -0.089558
  14 P :    0.788169
  15 C :   -0.015772
  16 C :   -0.039857
  17 H :   -0.057378
  18 H :   -0.042558
  19 H :   -0.041496
  20 C :    0.007635
  21 H :   -0.042044
  22 H :   -0.079658
  23 H :   -0.042148
  24 H :   -0.081682
  25 H :   -0.079834
  26 H :   -0.049252
  27 C :   -0.373361
  28 O :    0.114353
  29 Cl:   -0.118621
  30 C :   -0.535717
  31 O :   -0.063087
  32 Cl:   -0.012094
  33 C :    0.089995
  34 H :   -0.006005
  35 H :   -0.034060
  36 H :   -0.066009

  Mayer bond orders larger than 0.100000
B(  0-Ir,  1-P ) :   0.4655 B(  0-Ir, 14-P ) :   0.5690 B(  0-Ir, 27-C ) :   0.9234
B(  0-Ir, 29-Cl) :   0.2360 B(  0-Ir, 30-C ) :   0.6253 B(  0-Ir, 32-Cl) :   0.1876
B(  0-Ir, 33-C ) :   0.1060 B(  1-P ,  2-C ) :   0.8658 B(  1-P ,  3-C ) :   0.6731
B(  1-P , 10-C ) :   0.7611 B(  1-P , 30-C ) :   0.1284 B(  1-P , 32-Cl) :   0.1596
B(  2-C ,  8-H ) :   0.9743 B(  2-C , 11-H ) :   1.0032 B(  2-C , 13-H ) :   0.9943
B(  3-C ,  4-H ) :   1.0191 B(  3-C ,  6-H ) :   0.9826 B(  3-C ,  9-H ) :   1.0313
B(  5-H , 10-C ) :   1.0317 B(  7-H , 10-C ) :   1.0248 B( 10-C , 12-H ) :   0.9804
B( 14-P , 15-C ) :   0.7190 B( 14-P , 16-C ) :   0.9029 B( 14-P , 20-C ) :   0.6613
B( 14-P , 29-Cl) :   0.1972 B( 14-P , 32-Cl) :   0.1575 B( 15-C , 16-C ) :   0.1003
B( 15-C , 23-H ) :   0.9771 B( 15-C , 24-H ) :   1.0318 B( 15-C , 26-H ) :   1.0237
B( 16-C , 21-H ) :   0.9731 B( 16-C , 22-H ) :   1.0005 B( 16-C , 25-H ) :   0.9952
B( 17-H , 20-C ) :   1.0064 B( 18-H , 20-C ) :   0.9879 B( 19-H , 20-C ) :   1.0299
B( 27-C , 28-O ) :   2.0716 B( 27-C , 30-C ) :   0.1532 B( 30-C , 31-O ) :   1.5053
B( 30-C , 33-C ) :   0.9640 B( 33-C , 34-H ) :   1.1066 B( 33-C , 35-H ) :   0.9646
B( 33-C , 36-H ) :   1.0152

MP2 TOTAL ENERGY:    -2212.985187119 Eh
Dispersion correction           -0.055767652
FINAL SINGLE POINT ENERGY     -2213.040954770805

DIPOLE MOMENT
-------------
                                X             Y             Z
Electronic contribution:      0.18855      -7.77743      12.17427
Nuclear contribution   :     -0.04564       8.50954     -11.91616
                        -----------------------------------------
Total Dipole Moment    :      0.14291       0.73211       0.25811
                        -----------------------------------------
Magnitude (a.u.)       :      0.78932
Magnitude (Debye)      :      2.00629

Rotational constants in cm-1:     0.013559     0.009254     0.008806
Rotational constants in MHz :   406.483484   277.425577   264.007304

                             ****ORCA TERMINATED NORMALLY****
TOTAL RUN TIME: 0 days 0 hours 3 minutes 27 seconds 952 msec
