                         Program Version 4.2.0 -  RELEASE  -
|  1> #
|  2> # MOR33_pr28 ri-B2PLYP-D3BJ/Def2-TZVPPD
|  3> #
|  4> ! rijk ri-b2plyp d3bj def2-tzvppd def2/jk def2-tzvppd/c grid4 nofinalgrid
|  5>
|  6> *xyz 0 1
|  7> C        1.962238    1.228976    0.498763
|  8> C        1.599117    0.285883    1.541183
|  9> C        2.190996   -0.926462   -0.368778
| 10> C        2.300550    0.493131   -0.671789
| 11> C        2.081248    2.713946    0.664976
| 12> H        1.434728    3.080045    1.466376
| 13> H        1.821015    3.245065   -0.254703
| 14> H        3.112287    2.986784    0.927647
| 15> C        2.741378    1.051608   -1.988266
| 16> H        2.535990    2.123448   -2.051886
| 17> H        2.213045    0.558789   -2.809947
| 18> H        3.820515    0.902993   -2.128525
| 19> C        2.527241   -2.035347   -1.317221
| 20> H        3.613873   -2.134320   -1.446849
| 21> H        2.080344   -1.846887   -2.298459
| 22> H        2.144835   -2.993343   -0.953257
| 23> C        1.716574   -2.315630    1.788054
| 24> H        2.711935   -2.577282    2.171299
| 25> H        1.368788   -3.152284    1.175589
| 26> H        1.050088   -2.217418    2.648594
| 27> C        1.340513    0.619038    2.979845
| 28> H        2.276059    0.647386    3.557074
| 29> H        0.683714   -0.121696    3.445256
| 30> H        0.861589    1.596880    3.080055
| 31> Ru       0.207249   -0.005545   -0.119227
| 32> Cl      -0.429544   -0.245973   -2.480800
| 33> P       -1.456891    1.528216    0.068580
| 34> C       -1.650760    2.737817   -1.304822
| 35> H       -1.703179    2.179367   -2.242601
| 36> H       -0.763254    3.377318   -1.338338
| 37> H       -2.542801    3.360896   -1.175052
| 38> C       -1.549065    2.651656    1.528190
| 39> H       -2.472379    3.241595    1.506577
| 40> H       -0.697323    3.336564    1.527717
| 41> H       -1.520496    2.059136    2.446687
| 42> C       -3.144680    0.720288    0.161598
| 43> H       -3.432756    0.709722    1.219807
| 44> H       -3.887248    1.321720   -0.374189
| 45> C        1.787636   -1.042026    1.001372
| 46> P       -1.484414   -1.469966    0.216463
| 47> H       -2.382409   -3.625079   -0.568542
| 48> H       -0.624918   -3.689033   -0.270965
| 49> H       -1.236340   -2.863867   -1.723131
| 50> C       -3.065590   -0.710530   -0.380679
| 51> C       -1.439182   -3.076884   -0.670420
| 52> C       -1.931261   -2.000447    1.926464
| 53> H       -2.988264   -0.701756   -1.472521
| 54> H       -3.935017   -1.311110   -0.088429
| 55> H       -1.104361   -2.563780    2.366010
| 56> H       -2.827619   -2.630913    1.925421
| 57> H       -2.109292   -1.117280    2.546403
| 58> *
| 59>
| 60> %maxcore 5000
| 61>
| 62> %pal
| 63> nprocs = 24
| 64> end
| 65>
| 66>
| 67>                          ****END OF INPUT****

CARTESIAN COORDINATES (ANGSTROEM)
---------------------------------
  C      1.962238    1.228976    0.498763
  C      1.599117    0.285883    1.541183
  C      2.190996   -0.926462   -0.368778
  C      2.300550    0.493131   -0.671789
  C      2.081248    2.713946    0.664976
  H      1.434728    3.080045    1.466376
  H      1.821015    3.245065   -0.254703
  H      3.112287    2.986784    0.927647
  C      2.741378    1.051608   -1.988266
  H      2.535990    2.123448   -2.051886
  H      2.213045    0.558789   -2.809947
  H      3.820515    0.902993   -2.128525
  C      2.527241   -2.035347   -1.317221
  H      3.613873   -2.134320   -1.446849
  H      2.080344   -1.846887   -2.298459
  H      2.144835   -2.993343   -0.953257
  C      1.716574   -2.315630    1.788054
  H      2.711935   -2.577282    2.171299
  H      1.368788   -3.152284    1.175589
  H      1.050088   -2.217418    2.648594
  C      1.340513    0.619038    2.979845
  H      2.276059    0.647386    3.557074
  H      0.683714   -0.121696    3.445256
  H      0.861589    1.596880    3.080055
  Ru     0.207249   -0.005545   -0.119227
  Cl    -0.429544   -0.245973   -2.480800
  P     -1.456891    1.528216    0.068580
  C     -1.650760    2.737817   -1.304822
  H     -1.703179    2.179367   -2.242601
  H     -0.763254    3.377318   -1.338338
  H     -2.542801    3.360896   -1.175052
  C     -1.549065    2.651656    1.528190
  H     -2.472379    3.241595    1.506577
  H     -0.697323    3.336564    1.527717
  H     -1.520496    2.059136    2.446687
  C     -3.144680    0.720288    0.161598
  H     -3.432756    0.709722    1.219807
  H     -3.887248    1.321720   -0.374189
  C      1.787636   -1.042026    1.001372
  P     -1.484414   -1.469966    0.216463
  H     -2.382409   -3.625079   -0.568542
  H     -0.624918   -3.689033   -0.270965
  H     -1.236340   -2.863867   -1.723131
  C     -3.065590   -0.710530   -0.380679
  C     -1.439182   -3.076884   -0.670420
  C     -1.931261   -2.000447    1.926464
  H     -2.988264   -0.701756   -1.472521
  H     -3.935017   -1.311110   -0.088429
  H     -1.104361   -2.563780    2.366010
  H     -2.827619   -2.630913    1.925421
  H     -2.109292   -1.117280    2.546403

 Total Charge           Charge          ....    0
 Multiplicity           Mult            ....    1
 Number of Electrons    NEL             ....  190
 Basis Dimension        Dim             .... 1322

ORBITAL ENERGIES
----------------

  NO   OCC          E(Eh)            E(eV)
   0   2.0000    -102.798713     -2797.2952
   1   2.0000     -78.277170     -2130.0301
   2   2.0000     -78.276144     -2130.0022
   3   2.0000     -10.628756      -289.2232
   4   2.0000     -10.624657      -289.1116
   5   2.0000     -10.620879      -289.0088
   6   2.0000     -10.618373      -288.9406
   7   2.0000     -10.618097      -288.9331
   8   2.0000     -10.614606      -288.8381
   9   2.0000     -10.614503      -288.8353
  10   2.0000     -10.613545      -288.8092
  11   2.0000     -10.613336      -288.8036
  12   2.0000     -10.612668      -288.7854
  13   2.0000     -10.611375      -288.7502
  14   2.0000     -10.610145      -288.7167
  15   2.0000     -10.603709      -288.5416
  16   2.0000     -10.600387      -288.4512
  17   2.0000     -10.595773      -288.3256
  18   2.0000     -10.593104      -288.2530
  19   2.0000      -9.804477      -266.7934
  20   2.0000      -7.442056      -202.5086
  21   2.0000      -7.439759      -202.4461
  22   2.0000      -7.439671      -202.4437
  23   2.0000      -6.943457      -188.9411
  24   2.0000      -6.942793      -188.9230
  25   2.0000      -4.995076      -135.9229
  26   2.0000      -4.994674      -135.9120
  27   2.0000      -4.994324      -135.9025
  28   2.0000      -4.994041      -135.8948
  29   2.0000      -4.992329      -135.8482
  30   2.0000      -4.991664      -135.8301
  31   2.0000      -3.201459       -87.1161
  32   2.0000      -1.997470       -54.3539
  33   2.0000      -1.975691       -53.7613
  34   2.0000      -1.973522       -53.7023
  35   2.0000      -1.003421       -27.3045
  36   2.0000      -0.910825       -24.7848
  37   2.0000      -0.888667       -24.1819
  38   2.0000      -0.881750       -23.9936
  39   2.0000      -0.864383       -23.5211
  40   2.0000      -0.834092       -22.6968
  41   2.0000      -0.824597       -22.4384
  42   2.0000      -0.817460       -22.2442
  43   2.0000      -0.814247       -22.1568
  44   2.0000      -0.807654       -21.9774
  45   2.0000      -0.796992       -21.6873
  46   2.0000      -0.793957       -21.6047
  47   2.0000      -0.725972       -19.7547
  48   2.0000      -0.715558       -19.4713
  49   2.0000      -0.707476       -19.2514
  50   2.0000      -0.642424       -17.4812
  51   2.0000      -0.601591       -16.3701
  52   2.0000      -0.588871       -16.0240
  53   2.0000      -0.587589       -15.9891
  54   2.0000      -0.535462       -14.5707
  55   2.0000      -0.531298       -14.4574
  56   2.0000      -0.522248       -14.2111
  57   2.0000      -0.516441       -14.0531
  58   2.0000      -0.503871       -13.7110
  59   2.0000      -0.497324       -13.5329
  60   2.0000      -0.496746       -13.5171
  61   2.0000      -0.493491       -13.4286
  62   2.0000      -0.491130       -13.3643
  63   2.0000      -0.485763       -13.2183
  64   2.0000      -0.480016       -13.0619
  65   2.0000      -0.476899       -12.9771
  66   2.0000      -0.475626       -12.9425
  67   2.0000      -0.469803       -12.7840
  68   2.0000      -0.468792       -12.7565
  69   2.0000      -0.464360       -12.6359
  70   2.0000      -0.461221       -12.5504
  71   2.0000      -0.456510       -12.4223
  72   2.0000      -0.452948       -12.3253
  73   2.0000      -0.452080       -12.3017
  74   2.0000      -0.438624       -11.9356
  75   2.0000      -0.434130       -11.8133
  76   2.0000      -0.431664       -11.7462
  77   2.0000      -0.430792       -11.7224
  78   2.0000      -0.401475       -10.9247
  79   2.0000      -0.395066       -10.7503
  80   2.0000      -0.393405       -10.7051
  81   2.0000      -0.388836       -10.5808
  82   2.0000      -0.386448       -10.5158
  83   2.0000      -0.379860       -10.3365
  84   2.0000      -0.366699        -9.9784
  85   2.0000      -0.342206        -9.3119
  86   2.0000      -0.340588        -9.2679
  87   2.0000      -0.331805        -9.0289
  88   2.0000      -0.312339        -8.4992
  89   2.0000      -0.308782        -8.4024
  90   2.0000      -0.280254        -7.6261
  91   2.0000      -0.274509        -7.4698
  92   2.0000      -0.252200        -6.8627
  93   2.0000      -0.230431        -6.2703
  94   2.0000      -0.216770        -5.8986
  95   0.0000       0.019899         0.5415
  96   0.0000       0.029451         0.8014
  97   0.0000       0.035391         0.9630
  98   0.0000       0.038485         1.0472
  99   0.0000       0.050144         1.3645

MULLIKEN ATOMIC CHARGES
-----------------------
   0 C :    0.486762
   1 C :    0.842070
   2 C :    0.640417
   3 C :    0.821252
   4 C :   -0.649242
   5 H :    0.052743
   6 H :    0.095295
   7 H :    0.157423
   8 C :   -0.972040
   9 H :    0.109313
  10 H :    0.110894
  11 H :    0.151764
  12 C :   -1.034873
  13 H :    0.153408
  14 H :    0.118440
  15 H :    0.108406
  16 C :   -0.661056
  17 H :    0.157477
  18 H :    0.088386
  19 H :    0.057068
  20 C :   -0.977725
  21 H :    0.126258
  22 H :    0.106593
  23 H :    0.118968
  24 Ru:   -1.765280
  25 Cl:   -0.685420
  26 P :    1.691021
  27 C :   -0.905103
  28 H :    0.105110
  29 H :    0.119027
  30 H :    0.176973
  31 C :   -0.756948
  32 H :    0.151824
  33 H :    0.087644
  34 H :    0.075905
  35 C :   -0.529499
  36 H :    0.167874
  37 H :    0.216033
  38 C :    0.590515
  39 P :    1.580610
  40 H :    0.174540
  41 H :    0.136326
  42 H :    0.089593
  43 C :   -0.083201
  44 C :   -0.845138
  45 C :   -0.795082
  46 H :    0.243304
  47 H :    0.171155
  48 H :    0.122056
  49 H :    0.160373
  50 H :    0.097795
Sum of atomic charges:   -0.0000000

LOEWDIN ATOMIC CHARGES
----------------------
   0 C :   -0.240249
   1 C :   -0.260801
   2 C :   -0.259243
   3 C :   -0.255293
   4 C :    0.165672
   5 H :   -0.036565
   6 H :   -0.016864
   7 H :    0.004897
   8 C :    0.154740
   9 H :   -0.016607
  10 H :   -0.049240
  11 H :    0.001014
  12 C :    0.159699
  13 H :   -0.001466
  14 H :   -0.030917
  15 H :   -0.019802
  16 C :    0.163611
  17 H :    0.006331
  18 H :   -0.023018
  19 H :   -0.031296
  20 C :    0.160533
  21 H :    0.001258
  22 H :   -0.018507
  23 H :   -0.029065
  24 Ru:    0.459911
  25 Cl:   -0.026292
  26 P :    0.840937
  27 C :   -0.028095
  28 H :   -0.097706
  29 H :   -0.058305
  30 H :   -0.052641
  31 C :   -0.011811
  32 H :   -0.047477
  33 H :   -0.070819
  34 H :   -0.060018
  35 C :   -0.197057
  36 H :   -0.031982
  37 H :   -0.020809
  38 C :   -0.254484
  39 P :    0.815220
  40 H :   -0.049129
  41 H :   -0.063374
  42 H :   -0.084115
  43 C :   -0.225381
  44 C :   -0.013092
  45 C :    0.003061
  46 H :   -0.055781
  47 H :   -0.019621
  48 H :   -0.072617
  49 H :   -0.048762
  50 H :   -0.058583

  Mayer bond orders larger than 0.100000
B(  0-C ,  1-C ) :  -0.3644 B(  0-C ,  2-C ) :  -0.3961 B(  0-C ,  3-C ) :   0.3360
B(  0-C ,  4-C ) :   0.7375 B(  0-C ,  6-H ) :  -0.1258 B(  0-C ,  7-H ) :  -0.1215
B(  0-C ,  8-C ) :  -0.1832 B(  0-C , 12-C ) :   0.1140 B(  0-C , 24-Ru) :   0.9430
B(  0-C , 38-C ) :   0.1544 B(  1-C ,  2-C ) :  -0.2982 B(  1-C ,  3-C ) :  -0.2733
B(  1-C ,  4-C ) :  -0.1682 B(  1-C , 20-C ) :   0.7697 B(  1-C , 22-H ) :  -0.1804
B(  1-C , 23-H ) :  -0.1593 B(  1-C , 24-Ru) :   0.2108 B(  1-C , 26-P ) :   0.2892
B(  1-C , 39-P ) :   0.1231 B(  2-C ,  3-C ) :   0.7014 B(  2-C ,  8-C ) :  -0.1227
B(  2-C , 12-C ) :   0.9475 B(  2-C , 14-H ) :  -0.1346 B(  2-C , 15-H ) :  -0.1266
B(  2-C , 24-Ru) :   0.1420 B(  2-C , 25-Cl) :  -0.1736 B(  2-C , 38-C ) :   0.2977
B(  3-C ,  8-C ) :   0.9225 B(  3-C ,  9-H ) :  -0.1261 B(  3-C , 10-H ) :  -0.1148
B(  3-C , 12-C ) :  -0.1857 B(  3-C , 14-H ) :   0.1003 B(  3-C , 38-C ) :  -0.2892
B(  4-C ,  5-H ) :   1.0546 B(  4-C ,  6-H ) :   1.0372 B(  4-C ,  7-H ) :   0.9678
B(  4-C , 24-Ru) :   0.1225 B(  8-C ,  9-H ) :   1.0097 B(  8-C , 10-H ) :   1.0139
B(  8-C , 11-H ) :   0.9644 B(  8-C , 12-C ) :   0.1762 B(  8-C , 24-Ru) :   0.2150
B(  8-C , 38-C ) :   0.1089 B( 12-C , 13-H ) :   0.9695 B( 12-C , 14-H ) :   1.0030
B( 12-C , 15-H ) :   1.0196 B( 12-C , 24-Ru) :   0.3142 B( 12-C , 38-C ) :  -0.2411
B( 16-C , 17-H ) :   0.9826 B( 16-C , 18-H ) :   1.0494 B( 16-C , 19-H ) :   1.0550
B( 16-C , 38-C ) :   0.7019 B( 17-H , 38-C ) :  -0.1203 B( 18-H , 38-C ) :  -0.1074
B( 20-C , 21-H ) :   0.9860 B( 20-C , 22-H ) :   1.0706 B( 20-C , 23-H ) :   1.0442
B( 20-C , 38-C ) :  -0.2254 B( 24-Ru, 25-Cl) :   0.8072 B( 24-Ru, 26-P ) :   0.9186
B( 24-Ru, 27-C ) :   0.1994 B( 24-Ru, 31-C ) :   0.1354 B( 24-Ru, 38-C ) :   1.1056
B( 24-Ru, 39-P ) :   0.9460 B( 24-Ru, 44-C ) :   0.1418 B( 24-Ru, 45-C ) :   0.1712
B( 25-Cl, 26-P ) :  -0.2342 B( 26-P , 27-C ) :   0.6464 B( 26-P , 31-C ) :   0.6485
B( 26-P , 35-C ) :   0.5059 B( 26-P , 39-P ) :  -0.3442 B( 26-P , 43-C ) :   0.1068
B( 27-C , 28-H ) :   1.0606 B( 27-C , 29-H ) :   1.0423 B( 27-C , 30-H ) :   1.0005
B( 27-C , 31-C ) :   0.1523 B( 27-C , 35-C ) :   0.1297 B( 31-C , 32-H ) :   1.0381
B( 31-C , 33-H ) :   1.0058 B( 31-C , 34-H ) :   1.0464 B( 31-C , 35-C ) :   0.1490
B( 35-C , 36-H ) :   0.9280 B( 35-C , 37-H ) :   0.9374 B( 35-C , 39-P ) :   0.5310
B( 35-C , 43-C ) :   0.9092 B( 39-P , 43-C ) :   0.1582 B( 39-P , 44-C ) :   0.6615
B( 39-P , 45-C ) :   0.5350 B( 40-H , 44-C ) :   0.9995 B( 41-H , 44-C ) :   1.0238
B( 42-H , 44-C ) :   1.0384 B( 43-C , 45-C ) :   0.1730 B( 43-C , 46-H ) :   0.9560
B( 43-C , 47-H ) :   0.9876 B( 44-C , 45-C ) :   0.1316 B( 45-C , 48-H ) :   1.0266
B( 45-C , 49-H ) :   1.0191 B( 45-C , 50-H ) :   1.0369

MP2 TOTAL ENERGY:    -1865.613997345 Eh
Dispersion correction           -0.071943278
FINAL SINGLE POINT ENERGY     -1865.685940623385

DIPOLE MOMENT
-------------
                                X             Y             Z
Electronic contribution:     11.96533      -1.42703     -17.60840
Nuclear contribution   :    -12.48154       1.60484      19.54441
                        -----------------------------------------
Total Dipole Moment    :     -0.51621       0.17781       1.93601
                        -----------------------------------------
Magnitude (a.u.)       :      2.01152
Magnitude (Debye)      :      5.11288

Rotational constants in cm-1:     0.010225     0.008868     0.007900
Rotational constants in MHz :   306.523373   265.843264   236.824033

                             ****ORCA TERMINATED NORMALLY****
TOTAL RUN TIME: 0 days 0 hours 5 minutes 22 seconds 528 msec
