                         Program Version 4.2.0 -  RELEASE  -
|  1> #
|  2> # MOR37_pr38 ri-B2PLYP-D3BJ/Def2-TZVPPD
|  3> #
|  4> ! rijk ri-b2plyp d3bj def2-tzvppd def2/jk def2-tzvppd/c grid4 nofinalgrid
|  5>
|  6> *xyz 0 1
|  7> Mo       0.000368   -0.000951   -0.664236
|  8> C        1.186218    1.095679   -1.824431
|  9> C       -1.543342    0.475450   -1.823831
| 10> C        0.358600   -1.578355   -1.821075
| 11> O        0.584740   -2.492846   -2.512436
| 12> O        1.864319    1.747384   -2.517871
| 13> O       -2.447606    0.735637   -2.516687
| 14> P        1.980785   -0.729448    0.688588
| 15> P       -1.623545   -1.348294    0.688464
| 16> P       -0.357708    2.080403    0.685812
| 17> C       -1.633250    3.223236    0.009653
| 18> H       -1.705660    4.145387    0.596929
| 19> H       -2.603028    2.718106    0.000627
| 20> H       -1.373511    3.465952   -1.024212
| 21> C       -0.858884    2.043709    2.465539
| 22> H       -1.825180    1.541749    2.565977
| 23> H       -0.943418    3.056285    2.875390
| 24> H       -0.120247    1.484663    3.045786
| 25> C        1.092608    3.215640    0.782943
| 26> H        0.848407    4.138527    1.320517
| 27> H        1.418994    3.459201   -0.231490
| 28> H        1.920240    2.713456    1.291867
| 29> C       -1.984130   -3.020964    0.008508
| 30> H       -2.747676   -3.543086    0.595776
| 31> H       -1.064326   -3.612180   -0.003877
| 32> H       -2.325682   -2.913010   -1.024422
| 33> C       -1.336917   -1.769970    2.466070
| 34> H       -2.171293   -2.349509    2.876428
| 35> H       -1.219304   -0.852646    3.048800
| 36> H       -0.419591   -2.357379    2.562237
| 37> C       -3.329045   -0.653966    0.792955
| 38> H       -4.006858   -1.325859    1.330979
| 39> H       -3.705797   -0.489375   -0.219919
| 40> H       -3.303097    0.312486    1.304224
| 41> C        3.608641   -0.198569    0.011444
| 42> H        4.443241   -0.596886    0.599054
| 43> H        3.657034    0.893802    0.001026
| 44> H        3.688452   -0.546249   -1.021993
| 45> C        2.199807   -0.272940    2.467201
| 46> H        3.119209   -0.704894    2.877753
| 47> H        1.346620   -0.631939    3.048604
| 48> H        2.248134    0.815142    2.564989
| 49> C        2.238042   -2.552971    0.789569
| 50> H        3.157648   -2.802349    1.330381
| 51> H        2.288935   -2.958854   -0.224143
| 52> H        1.387609   -3.017788    1.296348
| 53> *
| 54>
| 55> %maxcore 5000
| 56>
| 57> %pal
| 58> nprocs = 24
| 59> end
| 60>
| 61>
| 62>                          ****END OF INPUT****

CARTESIAN COORDINATES (ANGSTROEM)
---------------------------------
  Mo     0.000368   -0.000951   -0.664236
  C      1.186218    1.095679   -1.824431
  C     -1.543342    0.475450   -1.823831
  C      0.358600   -1.578355   -1.821075
  O      0.584740   -2.492846   -2.512436
  O      1.864319    1.747384   -2.517871
  O     -2.447606    0.735637   -2.516687
  P      1.980785   -0.729448    0.688588
  P     -1.623545   -1.348294    0.688464
  P     -0.357708    2.080403    0.685812
  C     -1.633250    3.223236    0.009653
  H     -1.705660    4.145387    0.596929
  H     -2.603028    2.718106    0.000627
  H     -1.373511    3.465952   -1.024212
  C     -0.858884    2.043709    2.465539
  H     -1.825180    1.541749    2.565977
  H     -0.943418    3.056285    2.875390
  H     -0.120247    1.484663    3.045786
  C      1.092608    3.215640    0.782943
  H      0.848407    4.138527    1.320517
  H      1.418994    3.459201   -0.231490
  H      1.920240    2.713456    1.291867
  C     -1.984130   -3.020964    0.008508
  H     -2.747676   -3.543086    0.595776
  H     -1.064326   -3.612180   -0.003877
  H     -2.325682   -2.913010   -1.024422
  C     -1.336917   -1.769970    2.466070
  H     -2.171293   -2.349509    2.876428
  H     -1.219304   -0.852646    3.048800
  H     -0.419591   -2.357379    2.562237
  C     -3.329045   -0.653966    0.792955
  H     -4.006858   -1.325859    1.330979
  H     -3.705797   -0.489375   -0.219919
  H     -3.303097    0.312486    1.304224
  C      3.608641   -0.198569    0.011444
  H      4.443241   -0.596886    0.599054
  H      3.657034    0.893802    0.001026
  H      3.688452   -0.546249   -1.021993
  C      2.199807   -0.272940    2.467201
  H      3.119209   -0.704894    2.877753
  H      1.346620   -0.631939    3.048604
  H      2.248134    0.815142    2.564989
  C      2.238042   -2.552971    0.789569
  H      3.157648   -2.802349    1.330381
  H      2.288935   -2.958854   -0.224143
  H      1.387609   -3.017788    1.296348

 Total Charge           Charge          ....    0
 Multiplicity           Mult            ....    1
 Number of Electrons    NEL             ....  182
 Basis Dimension        Dim             .... 1223

ORBITAL ENERGIES
----------------

  NO   OCC          E(Eh)            E(eV)
   0   2.0000     -78.282994     -2130.1886
   1   2.0000     -78.282978     -2130.1881
   2   2.0000     -78.282956     -2130.1875
   3   2.0000     -19.753220      -537.5125
   4   2.0000     -19.753218      -537.5124
   5   2.0000     -19.753189      -537.5116
   6   2.0000     -10.694548      -291.0135
   7   2.0000     -10.694542      -291.0133
   8   2.0000     -10.694533      -291.0130
   9   2.0000     -10.623675      -289.0849
  10   2.0000     -10.623671      -289.0848
  11   2.0000     -10.623655      -289.0844
  12   2.0000     -10.617709      -288.9226
  13   2.0000     -10.617684      -288.9219
  14   2.0000     -10.617647      -288.9209
  15   2.0000     -10.614410      -288.8328
  16   2.0000     -10.614391      -288.8323
  17   2.0000     -10.614354      -288.8313
  18   2.0000      -6.949723      -189.1116
  19   2.0000      -6.949709      -189.1112
  20   2.0000      -6.949693      -189.1108
  21   2.0000      -5.001229      -136.0904
  22   2.0000      -5.001215      -136.0900
  23   2.0000      -5.001196      -136.0895
  24   2.0000      -5.001058      -136.0857
  25   2.0000      -5.001040      -136.0852
  26   2.0000      -5.001024      -136.0848
  27   2.0000      -4.998325      -136.0113
  28   2.0000      -4.998313      -136.0110
  29   2.0000      -4.998300      -136.0107
  30   2.0000      -2.698145       -73.4203
  31   2.0000      -1.638178       -44.5771
  32   2.0000      -1.638168       -44.5768
  33   2.0000      -1.637533       -44.5595
  34   2.0000      -1.223859       -33.3029
  35   2.0000      -1.223236       -33.2860
  36   2.0000      -1.223219       -33.2855
  37   2.0000      -0.890505       -24.2319
  38   2.0000      -0.884807       -24.0768
  39   2.0000      -0.884803       -24.0767
  40   2.0000      -0.811242       -22.0750
  41   2.0000      -0.808099       -21.9895
  42   2.0000      -0.808043       -21.9880
  43   2.0000      -0.803309       -21.8591
  44   2.0000      -0.803273       -21.8582
  45   2.0000      -0.802145       -21.8275
  46   2.0000      -0.645600       -17.5677
  47   2.0000      -0.625371       -17.0172
  48   2.0000      -0.625362       -17.0170
  49   2.0000      -0.617959       -16.8155
  50   2.0000      -0.613209       -16.6863
  51   2.0000      -0.613192       -16.6858
  52   2.0000      -0.537716       -14.6320
  53   2.0000      -0.525541       -14.3007
  54   2.0000      -0.525471       -14.2988
  55   2.0000      -0.513225       -13.9656
  56   2.0000      -0.513163       -13.9639
  57   2.0000      -0.511252       -13.9119
  58   2.0000      -0.506597       -13.7852
  59   2.0000      -0.502345       -13.6695
  60   2.0000      -0.502341       -13.6694
  61   2.0000      -0.495711       -13.4890
  62   2.0000      -0.489601       -13.3227
  63   2.0000      -0.489542       -13.3211
  64   2.0000      -0.485786       -13.2189
  65   2.0000      -0.483432       -13.1549
  66   2.0000      -0.483397       -13.1539
  67   2.0000      -0.478119       -13.0103
  68   2.0000      -0.472487       -12.8570
  69   2.0000      -0.472432       -12.8555
  70   2.0000      -0.471349       -12.8261
  71   2.0000      -0.466697       -12.6995
  72   2.0000      -0.466659       -12.6984
  73   2.0000      -0.464767       -12.6470
  74   2.0000      -0.461280       -12.5521
  75   2.0000      -0.459837       -12.5128
  76   2.0000      -0.459767       -12.5109
  77   2.0000      -0.457857       -12.4589
  78   2.0000      -0.457845       -12.4586
  79   2.0000      -0.403791       -10.9877
  80   2.0000      -0.401878       -10.9357
  81   2.0000      -0.401849       -10.9349
  82   2.0000      -0.394472       -10.7341
  83   2.0000      -0.394466       -10.7340
  84   2.0000      -0.393033       -10.6950
  85   2.0000      -0.331965        -9.0332
  86   2.0000      -0.317320        -8.6347
  87   2.0000      -0.317285        -8.6338
  88   2.0000      -0.218018        -5.9326
  89   2.0000      -0.218012        -5.9324
  90   2.0000      -0.216489        -5.8910
  91   0.0000       0.010666         0.2902
  92   0.0000       0.029876         0.8130
  93   0.0000       0.029916         0.8140
  94   0.0000       0.036073         0.9816
  95   0.0000       0.041800         1.1374

MULLIKEN ATOMIC CHARGES
-----------------------
   0 Mo:   -0.349802
   1 C :    0.213251
   2 C :    0.215510
   3 C :    0.207085
   4 O :   -0.436832
   5 O :   -0.436772
   6 O :   -0.437187
   7 P :    1.385904
   8 P :    1.381278
   9 P :    1.374785
  10 C :   -0.719297
  11 H :    0.170480
  12 H :    0.093338
  13 H :    0.080243
  14 C :   -0.631833
  15 H :    0.085558
  16 H :    0.154169
  17 H :    0.039682
  18 C :   -0.602005
  19 H :    0.146510
  20 H :    0.089775
  21 H :    0.060316
  22 C :   -0.719065
  23 H :    0.169631
  24 H :    0.093744
  25 H :    0.080745
  26 C :   -0.638463
  27 H :    0.152192
  28 H :    0.042929
  29 H :    0.084613
  30 C :   -0.604355
  31 H :    0.146164
  32 H :    0.090478
  33 H :    0.058870
  34 C :   -0.719932
  35 H :    0.169224
  36 H :    0.093062
  37 H :    0.081278
  38 C :   -0.636218
  39 H :    0.153962
  40 H :    0.042664
  41 H :    0.083341
  42 C :   -0.602395
  43 H :    0.144297
  44 H :    0.089354
  45 H :    0.059724
Sum of atomic charges:   -0.0000000

LOEWDIN ATOMIC CHARGES
----------------------
   0 Mo:    0.073570
   1 C :   -0.290355
   2 C :   -0.290423
   3 C :   -0.290411
   4 O :    0.012603
   5 O :    0.012653
   6 O :    0.012593
   7 P :    0.854358
   8 P :    0.854241
   9 P :    0.854296
  10 C :   -0.022701
  11 H :   -0.050540
  12 H :   -0.058173
  13 H :   -0.048326
  14 C :   -0.024220
  15 H :   -0.075252
  16 H :   -0.049337
  17 H :   -0.074063
  18 C :   -0.018488
  19 H :   -0.049268
  20 H :   -0.057964
  21 H :   -0.072671
  22 C :   -0.022770
  23 H :   -0.050576
  24 H :   -0.058016
  25 H :   -0.048330
  26 C :   -0.024390
  27 H :   -0.049385
  28 H :   -0.073798
  29 H :   -0.075144
  30 C :   -0.018412
  31 H :   -0.049230
  32 H :   -0.057930
  33 H :   -0.073053
  34 C :   -0.022768
  35 H :   -0.050545
  36 H :   -0.058130
  37 H :   -0.048362
  38 C :   -0.024435
  39 H :   -0.049390
  40 H :   -0.073914
  41 H :   -0.075093
  42 C :   -0.018471
  43 H :   -0.049279
  44 H :   -0.057917
  45 H :   -0.072787

  Mayer bond orders larger than 0.100000
B(  0-Mo,  1-C ) :   1.4289 B(  0-Mo,  2-C ) :   1.4318 B(  0-Mo,  3-C ) :   1.4106
B(  0-Mo,  7-P ) :   0.1980 B(  0-Mo,  8-P ) :   0.2095 B(  0-Mo,  9-P ) :   0.1990
B(  0-Mo, 10-C ) :   0.1249 B(  0-Mo, 22-C ) :   0.1257 B(  0-Mo, 34-C ) :   0.1225
B(  1-C ,  2-C ) :  -0.1537 B(  1-C ,  3-C ) :  -0.1508 B(  1-C ,  5-O ) :   1.8317
B(  2-C ,  3-C ) :  -0.1499 B(  2-C ,  6-O ) :   1.8347 B(  3-C ,  4-O ) :   1.8332
B(  7-P ,  8-P ) :   0.1992 B(  7-P ,  9-P ) :   0.2018 B(  7-P , 34-C ) :   0.5399
B(  7-P , 38-C ) :   0.6846 B(  7-P , 42-C ) :   0.5985 B(  8-P ,  9-P ) :   0.2026
B(  8-P , 22-C ) :   0.5359 B(  8-P , 26-C ) :   0.6876 B(  8-P , 30-C ) :   0.6012
B(  9-P , 10-C ) :   0.5399 B(  9-P , 14-C ) :   0.6907 B(  9-P , 18-C ) :   0.6050
B( 10-C , 11-H ) :   0.9931 B( 10-C , 12-H ) :   1.0259 B( 10-C , 13-H ) :   1.0421
B( 10-C , 14-C ) :   0.1156 B( 10-C , 18-C ) :   0.1386 B( 14-C , 15-H ) :   1.0121
B( 14-C , 16-H ) :   1.0292 B( 14-C , 17-H ) :   1.0465 B( 14-C , 18-C ) :   0.1512
B( 18-C , 19-H ) :   1.0190 B( 18-C , 20-H ) :   1.0156 B( 18-C , 21-H ) :   1.0149
B( 22-C , 23-H ) :   0.9937 B( 22-C , 24-H ) :   1.0249 B( 22-C , 25-H ) :   1.0431
B( 22-C , 26-C ) :   0.1163 B( 22-C , 30-C ) :   0.1396 B( 26-C , 27-H ) :   1.0312
B( 26-C , 28-H ) :   1.0469 B( 26-C , 29-H ) :   1.0132 B( 26-C , 30-C ) :   0.1525
B( 30-C , 31-H ) :   1.0203 B( 30-C , 32-H ) :   1.0160 B( 30-C , 33-H ) :   1.0167
B( 34-C , 35-H ) :   0.9943 B( 34-C , 36-H ) :   1.0248 B( 34-C , 37-H ) :   1.0408
B( 34-C , 38-C ) :   0.1165 B( 34-C , 42-C ) :   0.1390 B( 38-C , 39-H ) :   1.0304
B( 38-C , 40-H ) :   1.0456 B( 38-C , 41-H ) :   1.0136 B( 38-C , 42-C ) :   0.1526
B( 42-C , 43-H ) :   1.0212 B( 42-C , 44-H ) :   1.0162 B( 42-C , 45-H ) :   1.0163

MP2 TOTAL ENERGY:    -1790.994768198 Eh
Dispersion correction           -0.069572918
FINAL SINGLE POINT ENERGY     -1791.064341116451

DIPOLE MOMENT
-------------
                                X             Y             Z
Electronic contribution:      0.03078      -0.08874     -63.07386
Nuclear contribution   :     -0.03125       0.09337      66.31953
                        -----------------------------------------
Total Dipole Moment    :     -0.00047       0.00463       3.24567
                        -----------------------------------------
Magnitude (a.u.)       :      3.24567
Magnitude (Debye)      :      8.24984

Rotational constants in cm-1:     0.008677     0.008672     0.007610
Rotational constants in MHz :   260.126059   259.983430   228.154635

                             ****ORCA TERMINATED NORMALLY****
TOTAL RUN TIME: 0 days 0 hours 4 minutes 19 seconds 536 msec
