                         Program Version 4.2.0 -  RELEASE  -
|  1> #
|  2> # MOR30_pr12 ri-B2PLYP-D3BJ/Def2-TZVPPD
|  3> #
|  4> ! rijk ri-b2plyp d3bj def2-tzvppd def2/jk def2-tzvppd/c grid4 nofinalgrid
|  5>
|  6> *xyz 0 1
|  7> Cr      -0.000015    0.000077   -0.030936
|  8> O       -3.048010    0.000059    0.176284
|  9> C       -1.899390    0.000055    0.076972
| 10> C        0.001618   -0.001981    1.838499
| 11> O        0.002800   -0.003409    2.993522
| 12> C        1.899510    0.000027    0.074271
| 13> O        3.048267   -0.000019    0.172029
| 14> C       -0.000196    1.904845   -0.051611
| 15> O       -0.000396    3.057825   -0.041163
| 16> C       -0.000244   -1.904616   -0.055186
| 17> O       -0.000506   -3.057616   -0.046760
| 18> C       -0.692601    0.002127   -2.246320
| 19> H       -1.244106   -0.917771   -2.406195
| 20> H       -1.243862    0.922423   -2.404834
| 21> C        0.689570    0.001986   -2.247230
| 22> H        1.240812    0.922165   -2.406446
| 23> H        1.240675   -0.918028   -2.407739
| 24> *
| 25>
| 26> %maxcore 5000
| 27>
| 28> %pal
| 29> nprocs = 24
| 30> end
| 31>
| 32>
| 33>                          ****END OF INPUT****

CARTESIAN COORDINATES (ANGSTROEM)
---------------------------------
  Cr    -0.000015    0.000077   -0.030936
  O     -3.048010    0.000059    0.176284
  C     -1.899390    0.000055    0.076972
  C      0.001618   -0.001981    1.838499
  O      0.002800   -0.003409    2.993522
  C      1.899510    0.000027    0.074271
  O      3.048267   -0.000019    0.172029
  C     -0.000196    1.904845   -0.051611
  O     -0.000396    3.057825   -0.041163
  C     -0.000244   -1.904616   -0.055186
  O     -0.000506   -3.057616   -0.046760
  C     -0.692601    0.002127   -2.246320
  H     -1.244106   -0.917771   -2.406195
  H     -1.243862    0.922423   -2.404834
  C      0.689570    0.001986   -2.247230
  H      1.240812    0.922165   -2.406446
  H      1.240675   -0.918028   -2.407739

 Total Charge           Charge          ....    0
 Multiplicity           Mult            ....    1
 Number of Electrons    NEL             ....  110
 Basis Dimension        Dim             ....  594

ORBITAL ENERGIES
----------------

  NO   OCC          E(Eh)            E(eV)
   0   2.0000    -217.788791     -5926.3343
   1   2.0000     -25.463914      -692.9083
   2   2.0000     -21.603530      -587.8619
   3   2.0000     -21.601059      -587.7947
   4   2.0000     -21.600285      -587.7736
   5   2.0000     -19.822412      -539.3953
   6   2.0000     -19.822408      -539.3951
   7   2.0000     -19.816648      -539.2384
   8   2.0000     -19.816648      -539.2384
   9   2.0000     -19.808729      -539.0229
  10   2.0000     -10.753336      -292.6132
  11   2.0000     -10.753332      -292.6130
  12   2.0000     -10.753205      -292.6096
  13   2.0000     -10.753204      -292.6096
  14   2.0000     -10.746908      -292.4382
  15   2.0000     -10.660783      -290.0946
  16   2.0000     -10.659861      -290.0696
  17   2.0000      -3.140650       -85.4614
  18   2.0000      -2.012573       -54.7649
  19   2.0000      -2.008366       -54.6504
  20   2.0000      -2.007206       -54.6188
  21   2.0000      -1.295481       -35.2518
  22   2.0000      -1.295291       -35.2467
  23   2.0000      -1.291374       -35.1401
  24   2.0000      -1.291319       -35.1386
  25   2.0000      -1.282569       -34.9005
  26   2.0000      -0.916648       -24.9433
  27   2.0000      -0.719885       -19.5891
  28   2.0000      -0.708383       -19.2761
  29   2.0000      -0.673660       -18.3312
  30   2.0000      -0.667875       -18.1738
  31   2.0000      -0.667016       -18.1504
  32   2.0000      -0.661317       -17.9953
  33   2.0000      -0.589604       -16.0439
  34   2.0000      -0.588201       -16.0058
  35   2.0000      -0.557000       -15.1567
  36   2.0000      -0.555045       -15.1035
  37   2.0000      -0.554173       -15.0798
  38   2.0000      -0.553537       -15.0625
  39   2.0000      -0.542838       -14.7714
  40   2.0000      -0.538612       -14.6564
  41   2.0000      -0.536208       -14.5910
  42   2.0000      -0.527425       -14.3520
  43   2.0000      -0.526267       -14.3205
  44   2.0000      -0.525263       -14.2931
  45   2.0000      -0.524165       -14.2633
  46   2.0000      -0.514225       -13.9928
  47   2.0000      -0.496360       -13.5066
  48   2.0000      -0.487498       -13.2655
  49   2.0000      -0.486110       -13.2277
  50   2.0000      -0.461014       -12.5448
  51   2.0000      -0.373714       -10.1693
  52   2.0000      -0.288862        -7.8603
  53   2.0000      -0.287978        -7.8363
  54   2.0000      -0.287266        -7.8169
  55   0.0000      -0.001517        -0.0413
  56   0.0000       0.005853         0.1593
  57   0.0000       0.014407         0.3920
  58   0.0000       0.015179         0.4130
  59   0.0000       0.017053         0.4640

MULLIKEN ATOMIC CHARGES
-----------------------
   0 Cr:   -0.404802
   1 O :   -0.340187
   2 C :    0.400468
   3 C :    0.454831
   4 O :   -0.344512
   5 C :    0.400708
   6 O :   -0.340139
   7 C :    0.420932
   8 O :   -0.334942
   9 C :    0.420748
  10 O :   -0.334920
  11 C :   -0.183266
  12 H :    0.091845
  13 H :    0.091714
  14 C :   -0.181984
  15 H :    0.091750
  16 H :    0.091757
Sum of atomic charges:   -0.0000000

LOEWDIN ATOMIC CHARGES
----------------------
   0 Cr:   -0.423537
   1 O :    0.137094
   2 C :   -0.085674
   3 C :   -0.095383
   4 O :    0.130942
   5 C :   -0.085684
   6 O :    0.137096
   7 C :   -0.048335
   8 O :    0.138087
   9 C :   -0.048373
  10 O :    0.138094
  11 C :    0.080448
  12 H :   -0.013812
  13 H :   -0.013789
  14 C :    0.080436
  15 H :   -0.013790
  16 H :   -0.013821

  Mayer bond orders larger than 0.100000
B(  0-Cr,  1-O ) :   0.1064 B(  0-Cr,  2-C ) :   0.8163 B(  0-Cr,  3-C ) :   1.0760
B(  0-Cr,  4-O ) :   0.1288 B(  0-Cr,  5-C ) :   0.8166 B(  0-Cr,  6-O ) :   0.1064
B(  0-Cr,  7-C ) :   0.8088 B(  0-Cr,  8-O ) :   0.1349 B(  0-Cr,  9-C ) :   0.8072
B(  0-Cr, 10-O ) :   0.1350 B(  0-Cr, 11-C ) :   0.1838 B(  0-Cr, 14-C ) :   0.1834
B(  1-O ,  2-C ) :   2.0312 B(  3-C ,  4-O ) :   2.0443 B(  5-C ,  6-O ) :   2.0314
B(  7-C ,  8-O ) :   2.0319 B(  9-C , 10-O ) :   2.0318 B( 11-C , 12-H ) :   1.0648
B( 11-C , 13-H ) :   1.0651 B( 11-C , 14-C ) :   1.4143 B( 14-C , 15-H ) :   1.0648
B( 14-C , 16-H ) :   1.0648

MP2 TOTAL ENERGY:    -1689.536116592 Eh
Dispersion correction           -0.020099472
FINAL SINGLE POINT ENERGY     -1689.556216063593

DIPOLE MOMENT
-------------
                                X             Y             Z
Electronic contribution:      0.00523      -0.00675       7.74069
Nuclear contribution   :     -0.00600       0.00791      -8.87043
                        -----------------------------------------
Total Dipole Moment    :     -0.00077       0.00116      -1.12974
                        -----------------------------------------
Magnitude (a.u.)       :      1.12974
Magnitude (Debye)      :      2.87158

Rotational constants in cm-1:     0.023439     0.023057     0.021301
Rotational constants in MHz :   702.695821   691.231713   638.589543

                             ****ORCA TERMINATED NORMALLY****
TOTAL RUN TIME: 0 days 0 hours 0 minutes 46 seconds 689 msec
