                         Program Version 4.2.0 -  RELEASE  -
|  1> #
|  2> # MOR35_pr36 ri-B2PLYP-D3BJ/Def2-TZVPPD
|  3> #
|  4> ! rijk ri-b2plyp d3bj def2-tzvppd def2/jk def2-tzvppd/c grid4 nofinalgrid
|  5>
|  6> *xyz 0 1
|  7> Mo       0.001156    0.812745    0.000207
|  8> C        1.172497    1.772826   -1.694485
|  9> C        0.639726    0.579325   -2.273801
| 10> C       -0.771247    0.649846   -2.254302
| 11> C       -1.164711    1.879753   -1.653638
| 12> C        0.046469    2.597671   -1.356619
| 13> H        2.218029    2.030602   -1.618416
| 14> H        1.217264   -0.260486   -2.625291
| 15> H       -1.439014   -0.129218   -2.585395
| 16> H       -2.178363    2.230425   -1.528995
| 17> H        0.103229    3.616282   -1.010207
| 18> C       -0.046468    2.595414    1.359819
| 19> C       -1.170703    1.767726    1.696458
| 20> C        0.775662    0.648005    2.254259
| 21> C        1.166251    1.879509    1.655532
| 22> H       -2.216820    2.023173    1.620920
| 23> H       -1.210568   -0.267639    2.623707
| 24> C       -0.635131    0.574168    2.273601
| 25> H        2.179106    2.232469    1.530897
| 26> H       -0.105362    3.614384    1.014912
| 27> H        1.445278   -0.130208    2.583598
| 28> I        1.897907   -1.310822   -0.012606
| 29> I       -1.900461   -1.307301    0.011561
| 30> *
| 31>
| 32> %maxcore 5000
| 33>
| 34> %pal
| 35> nprocs = 24
| 36> end
| 37>
| 38>
| 39>                          ****END OF INPUT****

CARTESIAN COORDINATES (ANGSTROEM)
---------------------------------
  Mo     0.001156    0.812745    0.000207
  C      1.172497    1.772826   -1.694485
  C      0.639726    0.579325   -2.273801
  C     -0.771247    0.649846   -2.254302
  C     -1.164711    1.879753   -1.653638
  C      0.046469    2.597671   -1.356619
  H      2.218029    2.030602   -1.618416
  H      1.217264   -0.260486   -2.625291
  H     -1.439014   -0.129218   -2.585395
  H     -2.178363    2.230425   -1.528995
  H      0.103229    3.616282   -1.010207
  C     -0.046468    2.595414    1.359819
  C     -1.170703    1.767726    1.696458
  C      0.775662    0.648005    2.254259
  C      1.166251    1.879509    1.655532
  H     -2.216820    2.023173    1.620920
  H     -1.210568   -0.267639    2.623707
  C     -0.635131    0.574168    2.273601
  H      2.179106    2.232469    1.530897
  H     -0.105362    3.614384    1.014912
  H      1.445278   -0.130208    2.583598
  I      1.897907   -1.310822   -0.012606
  I     -1.900461   -1.307301    0.011561

 Total Charge           Charge          ....    0
 Multiplicity           Mult            ....    1
 Number of Electrons    NEL             ....  134
 Basis Dimension        Dim             ....  714

ORBITAL ENERGIES
----------------

  NO   OCC          E(Eh)            E(eV)
   0   2.0000     -10.675518      -290.4956
   1   2.0000     -10.675513      -290.4955
   2   2.0000     -10.666924      -290.2618
   3   2.0000     -10.666901      -290.2611
   4   2.0000     -10.665028      -290.2102
   5   2.0000     -10.664973      -290.2087
   6   2.0000     -10.663059      -290.1566
   7   2.0000     -10.663032      -290.1559
   8   2.0000     -10.661851      -290.1237
   9   2.0000     -10.661826      -290.1230
  10   2.0000      -7.154580      -194.6860
  11   2.0000      -7.154571      -194.6858
  12   2.0000      -5.105480      -138.9272
  13   2.0000      -5.105473      -138.9270
  14   2.0000      -5.099168      -138.7554
  15   2.0000      -5.099158      -138.7552
  16   2.0000      -5.098927      -138.7489
  17   2.0000      -5.098918      -138.7486
  18   2.0000      -2.816053       -76.6287
  19   2.0000      -2.007463       -54.6259
  20   2.0000      -2.007438       -54.6252
  21   2.0000      -2.005395       -54.5696
  22   2.0000      -2.005382       -54.5692
  23   2.0000      -2.005114       -54.5619
  24   2.0000      -2.005059       -54.5604
  25   2.0000      -1.999152       -54.3997
  26   2.0000      -1.999137       -54.3993
  27   2.0000      -1.999104       -54.3984
  28   2.0000      -1.999093       -54.3981
  29   2.0000      -1.767543       -48.0973
  30   2.0000      -1.749347       -47.6022
  31   2.0000      -1.733702       -47.1764
  32   2.0000      -1.053481       -28.6667
  33   2.0000      -1.037424       -28.2298
  34   2.0000      -0.868423       -23.6310
  35   2.0000      -0.860735       -23.4218
  36   2.0000      -0.858838       -23.3702
  37   2.0000      -0.857184       -23.3252
  38   2.0000      -0.724692       -19.7199
  39   2.0000      -0.715489       -19.4694
  40   2.0000      -0.684517       -18.6266
  41   2.0000      -0.663586       -18.0571
  42   2.0000      -0.662468       -18.0267
  43   2.0000      -0.661081       -17.9889
  44   2.0000      -0.650308       -17.6958
  45   2.0000      -0.639316       -17.3967
  46   2.0000      -0.517018       -14.0688
  47   2.0000      -0.514856       -14.0099
  48   2.0000      -0.511675       -13.9234
  49   2.0000      -0.510710       -13.8971
  50   2.0000      -0.509150       -13.8547
  51   2.0000      -0.489290       -13.3143
  52   2.0000      -0.483629       -13.1602
  53   2.0000      -0.480430       -13.0732
  54   2.0000      -0.478148       -13.0111
  55   2.0000      -0.459145       -12.4940
  56   2.0000      -0.367848       -10.0096
  57   2.0000      -0.361963        -9.8495
  58   2.0000      -0.355096        -9.6627
  59   2.0000      -0.335091        -9.1183
  60   2.0000      -0.324439        -8.8284
  61   2.0000      -0.311220        -8.4687
  62   2.0000      -0.308957        -8.4072
  63   2.0000      -0.259142        -7.0516
  64   2.0000      -0.257330        -7.0023
  65   2.0000      -0.245099        -6.6695
  66   2.0000      -0.242986        -6.6120
  67   0.0000      -0.023303        -0.6341
  68   0.0000      -0.015351        -0.4177
  69   0.0000       0.002214         0.0602
  70   0.0000       0.015850         0.4313
  71   0.0000       0.027084         0.7370

MULLIKEN ATOMIC CHARGES
-----------------------
   0 Mo:   -0.739373
   1 C :    0.284868
   2 C :   -0.264049
   3 C :   -0.307415
   4 C :    0.351434
   5 C :    0.007421
   6 H :   -0.033271
   7 H :    0.221634
   8 H :    0.242792
   9 H :    0.018796
  10 H :    0.224672
  11 C :    0.007555
  12 C :    0.288120
  13 C :   -0.307513
  14 C :    0.351864
  15 H :   -0.034280
  16 H :    0.219662
  17 C :   -0.264279
  18 H :    0.018953
  19 H :    0.224754
  20 H :    0.242344
  21 I :   -0.377446
  22 I :   -0.377244
Sum of atomic charges:    0.0000000

LOEWDIN ATOMIC CHARGES
----------------------
   0 Mo:    0.723634
   1 C :   -0.082251
   2 C :   -0.142355
   3 C :   -0.136454
   4 C :   -0.068125
   5 C :   -0.078218
   6 H :    0.007741
   7 H :   -0.045540
   8 H :   -0.046960
   9 H :    0.010594
  10 H :    0.001221
  11 C :   -0.078185
  12 C :   -0.082859
  13 C :   -0.136439
  14 C :   -0.067659
  15 H :    0.007617
  16 H :   -0.045811
  17 C :   -0.142937
  18 H :    0.010637
  19 H :    0.001197
  20 H :   -0.047108
  21 I :    0.218845
  22 I :    0.219413

  Mayer bond orders larger than 0.100000
B(  0-Mo,  1-C ) :   0.3163 B(  0-Mo,  2-C ) :   0.6119 B(  0-Mo,  3-C ) :   0.5853
B(  0-Mo,  4-C ) :   0.2936 B(  0-Mo,  5-C ) :   0.7987 B(  0-Mo, 11-C ) :   0.7985
B(  0-Mo, 12-C ) :   0.3163 B(  0-Mo, 13-C ) :   0.5857 B(  0-Mo, 14-C ) :   0.2939
B(  0-Mo, 17-C ) :   0.6109 B(  0-Mo, 21-I ) :   0.8034 B(  0-Mo, 22-I ) :   0.8031
B(  1-C ,  2-C ) :   0.9379 B(  1-C ,  3-C ) :  -0.2297 B(  1-C ,  5-C ) :   1.1283
B(  1-C ,  6-H ) :   1.0103 B(  1-C , 11-C ) :  -0.1179 B(  1-C , 14-C ) :   0.3444
B(  2-C ,  3-C ) :   1.1547 B(  2-C ,  4-C ) :  -0.2156 B(  2-C ,  7-H ) :   1.0160
B(  2-C , 21-I ) :   0.1758 B(  3-C ,  4-C ) :   0.9490 B(  3-C ,  8-H ) :   1.0041
B(  3-C , 22-I ) :   0.2097 B(  4-C ,  5-C ) :   1.1373 B(  4-C ,  9-H ) :   0.9838
B(  4-C , 11-C ) :  -0.1338 B(  4-C , 12-C ) :   0.3441 B(  5-C , 10-H ) :   0.8696
B(  5-C , 12-C ) :  -0.1171 B(  5-C , 14-C ) :  -0.1362 B(  7-H , 21-I ) :  -0.1598
B(  8-H , 22-I ) :  -0.1764 B( 11-C , 12-C ) :   1.1281 B( 11-C , 14-C ) :   1.1374
B( 11-C , 19-H ) :   0.8690 B( 12-C , 13-C ) :  -0.2285 B( 12-C , 15-H ) :   1.0111
B( 12-C , 17-C ) :   0.9337 B( 13-C , 14-C ) :   0.9492 B( 13-C , 17-C ) :   1.1476
B( 13-C , 20-H ) :   1.0063 B( 13-C , 21-I ) :   0.2068 B( 14-C , 17-C ) :  -0.2138
B( 14-C , 18-H ) :   0.9841 B( 16-H , 17-C ) :   1.0182 B( 16-H , 22-I ) :  -0.1580
B( 17-C , 22-I ) :   0.1765 B( 20-H , 21-I ) :  -0.1764

MP2 TOTAL ENERGY:    -1050.227506069 Eh
Dispersion correction           -0.040334440
FINAL SINGLE POINT ENERGY     -1050.267840509182

DIPOLE MOMENT
-------------
                                X             Y             Z
Electronic contribution:     -0.09770    -123.86856      -0.05602
Nuclear contribution   :      0.10150     127.02090       0.05751
                        -----------------------------------------
Total Dipole Moment    :      0.00380       3.15234       0.00149
                        -----------------------------------------
Magnitude (a.u.)       :      3.15234
Magnitude (Debye)      :      8.01262

Rotational constants in cm-1:     0.012573     0.011263     0.008836
Rotational constants in MHz :   376.926737   337.652277   264.898337

                             ****ORCA TERMINATED NORMALLY****
TOTAL RUN TIME: 0 days 0 hours 1 minutes 50 seconds 375 msec
