                         Program Version 4.2.0 -  RELEASE  -
|  1> #
|  2> # MOR34_pr35 ri-B2PLYP-D3BJ/Def2-TZVPPD
|  3> #
|  4> ! rijk ri-b2plyp d3bj def2-tzvppd def2/jk def2-tzvppd/c grid4 nofinalgrid
|  5>
|  6> *xyz 0 1
|  7> Ru       0.569145    0.005836    0.165179
|  8> Se      -1.577691    0.219302   -1.256403
|  9> P        2.150844   -0.339975    1.751510
| 10> P        1.960774    0.268717   -1.689611
| 11> P        0.209152    2.312844    0.427199
| 12> P        0.201777   -2.273734   -0.170115
| 13> C       -3.165297    0.017396   -0.190307
| 14> C       -4.394132    0.053132   -0.874133
| 15> C       -5.595730   -0.078160   -0.183035
| 16> C       -5.602894   -0.248979    1.204636
| 17> C       -4.386994   -0.285335    1.887322
| 18> C       -3.179536   -0.153593    1.200055
| 19> C        2.835775    1.024261    2.797241
| 20> C        3.776990   -1.134294    1.350685
| 21> C        1.582544   -1.410719    3.147602
| 22> C        1.189258    0.640725   -3.324662
| 23> C        3.233820    1.610023   -1.608962
| 24> C        3.088037   -1.102636   -2.218553
| 25> C       -1.285561    2.723129    1.411363
| 26> C        1.411100    3.483245    1.220886
| 27> C       -0.106458    3.317190   -1.091179
| 28> C       -1.203048   -2.960414    0.792609
| 29> C        1.495583   -3.557062    0.180127
| 30> C       -0.249251   -2.863510   -1.860160
| 31> H       -0.380046   -0.139952    1.501494
| 32> H       -4.399385    0.184833   -1.953205
| 33> H       -6.533440   -0.047821   -0.732848
| 34> H       -6.541373   -0.352173    1.741881
| 35> H       -4.372710   -0.417664    2.966984
| 36> H       -2.231572   -0.183831    1.730627
| 37> H        2.021868    1.525326    3.326216
| 38> H        3.360848    1.757391    2.181578
| 39> H        3.533951    0.611895    3.534364
| 40> H        4.357450   -0.458164    0.715432
| 41> H        3.629968   -2.070962    0.811827
| 42> H        4.349762   -1.333108    2.263576
| 43> H        0.778593   -0.879257    3.663997
| 44> H        2.395525   -1.623101    3.851423
| 45> H        1.170731   -2.350778    2.777081
| 46> H        1.942377    0.770617   -4.110078
| 47> H        0.580686    1.544719   -3.247034
| 48> H        0.519142   -0.181425   -3.592607
| 49> H        3.848415    1.640003   -2.515852
| 50> H        3.881269    1.436754   -0.744032
| 51> H        2.749674    2.580347   -1.477575
| 52> H        3.680607   -0.803573   -3.090502
| 53> H        2.506614   -1.989838   -2.479223
| 54> H        3.765021   -1.364235   -1.402566
| 55> H       -1.422862    3.807855    1.484184
| 56> H       -1.180491    2.295670    2.412101
| 57> H       -2.158099    2.270920    0.935224
| 58> H        1.060677    4.511234    1.077988
| 59> H        2.402787    3.383240    0.772277
| 60> H        1.491749    3.290644    2.291344
| 61> H       -0.430215    4.323980   -0.805953
| 62> H       -0.883917    2.832935   -1.685612
| 63> H        0.806667    3.401312   -1.686904
| 64> H       -1.338643   -4.028887    0.591012
| 65> H       -2.108817   -2.414477    0.518490
| 66> H       -1.024200   -2.804556    1.859563
| 67> H        1.083825   -4.556345    0.001539
| 68> H        1.848365   -3.505467    1.212021
| 69> H        2.350340   -3.408454   -0.485526
| 70> H       -0.446095   -3.940916   -1.837012
| 71> H        0.566038   -2.668527   -2.561627
| 72> H       -1.135395   -2.323383   -2.198214
| 73> *
| 74>
| 75> %maxcore 5000
| 76>
| 77> %pal
| 78> nprocs = 24
| 79> end
| 80>
| 81>
| 82>                          ****END OF INPUT****

CARTESIAN COORDINATES (ANGSTROEM)
---------------------------------
  Ru     0.569145    0.005836    0.165179
  Se    -1.577691    0.219302   -1.256403
  P      2.150844   -0.339975    1.751510
  P      1.960774    0.268717   -1.689611
  P      0.209152    2.312844    0.427199
  P      0.201777   -2.273734   -0.170115
  C     -3.165297    0.017396   -0.190307
  C     -4.394132    0.053132   -0.874133
  C     -5.595730   -0.078160   -0.183035
  C     -5.602894   -0.248979    1.204636
  C     -4.386994   -0.285335    1.887322
  C     -3.179536   -0.153593    1.200055
  C      2.835775    1.024261    2.797241
  C      3.776990   -1.134294    1.350685
  C      1.582544   -1.410719    3.147602
  C      1.189258    0.640725   -3.324662
  C      3.233820    1.610023   -1.608962
  C      3.088037   -1.102636   -2.218553
  C     -1.285561    2.723129    1.411363
  C      1.411100    3.483245    1.220886
  C     -0.106458    3.317190   -1.091179
  C     -1.203048   -2.960414    0.792609
  C      1.495583   -3.557062    0.180127
  C     -0.249251   -2.863510   -1.860160
  H     -0.380046   -0.139952    1.501494
  H     -4.399385    0.184833   -1.953205
  H     -6.533440   -0.047821   -0.732848
  H     -6.541373   -0.352173    1.741881
  H     -4.372710   -0.417664    2.966984
  H     -2.231572   -0.183831    1.730627
  H      2.021868    1.525326    3.326216
  H      3.360848    1.757391    2.181578
  H      3.533951    0.611895    3.534364
  H      4.357450   -0.458164    0.715432
  H      3.629968   -2.070962    0.811827
  H      4.349762   -1.333108    2.263576
  H      0.778593   -0.879257    3.663997
  H      2.395525   -1.623101    3.851423
  H      1.170731   -2.350778    2.777081
  H      1.942377    0.770617   -4.110078
  H      0.580686    1.544719   -3.247034
  H      0.519142   -0.181425   -3.592607
  H      3.848415    1.640003   -2.515852
  H      3.881269    1.436754   -0.744032
  H      2.749674    2.580347   -1.477575
  H      3.680607   -0.803573   -3.090502
  H      2.506614   -1.989838   -2.479223
  H      3.765021   -1.364235   -1.402566
  H     -1.422862    3.807855    1.484184
  H     -1.180491    2.295670    2.412101
  H     -2.158099    2.270920    0.935224
  H      1.060677    4.511234    1.077988
  H      2.402787    3.383240    0.772277
  H      1.491749    3.290644    2.291344
  H     -0.430215    4.323980   -0.805953
  H     -0.883917    2.832935   -1.685612
  H      0.806667    3.401312   -1.686904
  H     -1.338643   -4.028887    0.591012
  H     -2.108817   -2.414477    0.518490
  H     -1.024200   -2.804556    1.859563
  H      1.083825   -4.556345    0.001539
  H      1.848365   -3.505467    1.212021
  H      2.350340   -3.408454   -0.485526
  H     -0.446095   -3.940916   -1.837012
  H      0.566038   -2.668527   -2.561627
  H     -1.135395   -2.323383   -2.198214

 Total Charge           Charge          ....    0
 Multiplicity           Mult            ....    1
 Number of Electrons    NEL             ....  260
 Basis Dimension        Dim             .... 1685

ORBITAL ENERGIES
----------------

  NO   OCC          E(Eh)            E(eV)
   0   2.0000    -456.721138    -12428.0140
   1   2.0000     -78.283764     -2130.2095
   2   2.0000     -78.277539     -2130.0401
   3   2.0000     -78.274645     -2129.9614
   4   2.0000     -78.272129     -2129.8929
   5   2.0000     -59.060840     -1607.1272
   6   2.0000     -52.925535     -1440.1770
   7   2.0000     -52.924068     -1440.1371
   8   2.0000     -52.923297     -1440.1161
   9   2.0000     -10.614825      -288.8441
  10   2.0000     -10.614627      -288.8387
  11   2.0000     -10.614108      -288.8246
  12   2.0000     -10.612909      -288.7919
  13   2.0000     -10.612166      -288.7717
  14   2.0000     -10.609746      -288.7059
  15   2.0000     -10.608648      -288.6760
  16   2.0000     -10.605934      -288.6021
  17   2.0000     -10.603836      -288.5451
  18   2.0000     -10.596982      -288.3585
  19   2.0000     -10.596376      -288.3420
  20   2.0000     -10.595625      -288.3216
  21   2.0000     -10.595405      -288.3156
  22   2.0000     -10.595195      -288.3099
  23   2.0000     -10.592684      -288.2416
  24   2.0000     -10.591252      -288.2026
  25   2.0000     -10.590319      -288.1772
  26   2.0000     -10.584842      -288.0282
  27   2.0000      -8.185948      -222.7510
  28   2.0000      -6.948461      -189.0772
  29   2.0000      -6.943261      -188.9357
  30   2.0000      -6.940271      -188.8544
  31   2.0000      -6.937775      -188.7865
  32   2.0000      -6.044035      -164.4665
  33   2.0000      -6.038481      -164.3154
  34   2.0000      -6.035735      -164.2407
  35   2.0000      -5.000178      -136.0618
  36   2.0000      -5.000018      -136.0574
  37   2.0000      -4.997250      -135.9821
  38   2.0000      -4.994849      -135.9168
  39   2.0000      -4.994681      -135.9122
  40   2.0000      -4.992024      -135.8399
  41   2.0000      -4.991910      -135.8368
  42   2.0000      -4.991550      -135.8270
  43   2.0000      -4.989500      -135.7712
  44   2.0000      -4.989053      -135.7590
  45   2.0000      -4.989048      -135.7589
  46   2.0000      -4.986530      -135.6904
  47   2.0000      -3.191915       -86.8564
  48   2.0000      -2.245826       -61.1120
  49   2.0000      -2.243986       -61.0620
  50   2.0000      -2.241273       -60.9881
  51   2.0000      -2.236001       -60.8447
  52   2.0000      -2.235789       -60.8389
  53   2.0000      -1.973247       -53.6948
  54   2.0000      -1.971748       -53.6540
  55   2.0000      -1.968413       -53.5632
  56   2.0000      -0.950917       -25.8758
  57   2.0000      -0.886537       -24.1239
  58   2.0000      -0.879047       -23.9201
  59   2.0000      -0.872546       -23.7432
  60   2.0000      -0.870287       -23.6817
  61   2.0000      -0.838804       -22.8250
  62   2.0000      -0.830659       -22.6034
  63   2.0000      -0.804735       -21.8980
  64   2.0000      -0.801112       -21.7994
  65   2.0000      -0.800227       -21.7753
  66   2.0000      -0.795739       -21.6532
  67   2.0000      -0.792115       -21.5545
  68   2.0000      -0.786671       -21.4064
  69   2.0000      -0.785008       -21.3612
  70   2.0000      -0.783846       -21.3295
  71   2.0000      -0.714776       -19.4500
  72   2.0000      -0.669747       -18.2247
  73   2.0000      -0.641324       -17.4513
  74   2.0000      -0.631631       -17.1875
  75   2.0000      -0.621237       -16.9047
  76   2.0000      -0.613716       -16.7001
  77   2.0000      -0.610175       -16.6037
  78   2.0000      -0.558557       -15.1991
  79   2.0000      -0.535744       -14.5783
  80   2.0000      -0.523630       -14.2487
  81   2.0000      -0.520180       -14.1548
  82   2.0000      -0.514462       -13.9992
  83   2.0000      -0.512447       -13.9444
  84   2.0000      -0.505492       -13.7551
  85   2.0000      -0.502741       -13.6803
  86   2.0000      -0.498387       -13.5618
  87   2.0000      -0.496446       -13.5090
  88   2.0000      -0.494701       -13.4615
  89   2.0000      -0.491851       -13.3839
  90   2.0000      -0.488365       -13.2891
  91   2.0000      -0.487117       -13.2551
  92   2.0000      -0.480601       -13.0778
  93   2.0000      -0.472690       -12.8626
  94   2.0000      -0.470375       -12.7996
  95   2.0000      -0.468801       -12.7567
  96   2.0000      -0.466362       -12.6903
  97   2.0000      -0.464405       -12.6371
  98   2.0000      -0.458547       -12.4777
  99   2.0000      -0.457289       -12.4435
 100   2.0000      -0.455616       -12.3980
 101   2.0000      -0.455123       -12.3845
 102   2.0000      -0.453261       -12.3339
 103   2.0000      -0.450489       -12.2584
 104   2.0000      -0.444687       -12.1005
 105   2.0000      -0.442856       -12.0507
 106   2.0000      -0.428491       -11.6598
 107   2.0000      -0.405034       -11.0215
 108   2.0000      -0.401017       -10.9122
 109   2.0000      -0.398188       -10.8352
 110   2.0000      -0.397226       -10.8091
 111   2.0000      -0.390532       -10.6269
 112   2.0000      -0.387627       -10.5479
 113   2.0000      -0.382446       -10.4069
 114   2.0000      -0.380901       -10.3649
 115   2.0000      -0.379040       -10.3142
 116   2.0000      -0.377890       -10.2829
 117   2.0000      -0.374072       -10.1790
 118   2.0000      -0.359643        -9.7864
 119   2.0000      -0.355094        -9.6626
 120   2.0000      -0.332645        -9.0517
 121   2.0000      -0.312644        -8.5075
 122   2.0000      -0.284542        -7.7428
 123   2.0000      -0.275150        -7.4872
 124   2.0000      -0.269720        -7.3395
 125   2.0000      -0.265950        -7.2369
 126   2.0000      -0.264000        -7.1838
 127   2.0000      -0.254690        -6.9305
 128   2.0000      -0.232081        -6.3152
 129   2.0000      -0.190468        -5.1829
 130   0.0000       0.014766         0.4018
 131   0.0000       0.029978         0.8157
 132   0.0000       0.031423         0.8551
 133   0.0000       0.035229         0.9586
 134   0.0000       0.044317         1.2059

MULLIKEN ATOMIC CHARGES
-----------------------
   0 Ru:   -0.843085
   1 Se:   -0.382301
   2 P :    1.738950
   3 P :    1.404748
   4 P :    1.574442
   5 P :    1.455061
   6 C :    0.402980
   7 C :   -0.719961
   8 C :   -0.137492
   9 C :   -0.000982
  10 C :   -0.664257
  11 C :    1.255891
  12 C :   -0.850998
  13 C :   -0.713070
  14 C :   -0.829215
  15 C :   -0.850333
  16 C :   -0.664613
  17 C :   -0.582731
  18 C :   -0.520416
  19 C :   -0.678889
  20 C :   -0.715124
  21 C :   -0.625715
  22 C :   -0.687986
  23 C :   -0.563547
  24 H :   -0.176406
  25 H :   -0.060407
  26 H :   -0.060836
  27 H :   -0.051563
  28 H :   -0.056080
  29 H :   -0.357121
  30 H :    0.083093
  31 H :    0.126343
  32 H :    0.167777
  33 H :    0.106330
  34 H :    0.097405
  35 H :    0.169144
  36 H :    0.078661
  37 H :    0.154711
  38 H :    0.091277
  39 H :    0.185228
  40 H :    0.099654
  41 H :    0.093858
  42 H :    0.128892
  43 H :    0.096576
  44 H :    0.099763
  45 H :    0.141628
  46 H :    0.070231
  47 H :    0.077551
  48 H :    0.181511
  49 H :    0.017255
  50 H :    0.018123
  51 H :    0.178447
  52 H :    0.067018
  53 H :    0.098739
  54 H :    0.162784
  55 H :    0.061944
  56 H :    0.123242
  57 H :    0.180510
  58 H :    0.057253
  59 H :    0.038598
  60 H :    0.151885
  61 H :    0.127298
  62 H :    0.076256
  63 H :    0.167575
  64 H :    0.114032
  65 H :    0.070464
Sum of atomic charges:    0.0000000

LOEWDIN ATOMIC CHARGES
----------------------
   0 Ru:   -0.118121
   1 Se:    0.661510
   2 P :    0.785927
   3 P :    0.795908
   4 P :    0.792715
   5 P :    0.788810
   6 C :   -0.581716
   7 C :   -0.066001
   8 C :   -0.004617
   9 C :   -0.008880
  10 C :    0.004037
  11 C :   -0.092028
  12 C :   -0.028613
  13 C :   -0.021299
  14 C :   -0.029625
  15 C :   -0.034459
  16 C :   -0.020866
  17 C :   -0.016919
  18 C :   -0.021222
  19 C :   -0.026844
  20 C :   -0.051571
  21 C :   -0.008321
  22 C :   -0.022408
  23 C :   -0.042806
  24 H :   -0.119697
  25 H :   -0.016928
  26 H :   -0.005331
  27 H :   -0.010759
  28 H :   -0.003528
  29 H :   -0.067169
  30 H :   -0.061563
  31 H :   -0.065650
  32 H :   -0.049763
  33 H :   -0.067805
  34 H :   -0.087101
  35 H :   -0.049458
  36 H :   -0.053925
  37 H :   -0.049604
  38 H :   -0.090595
  39 H :   -0.048932
  40 H :   -0.075560
  41 H :   -0.066829
  42 H :   -0.049123
  43 H :   -0.066864
  44 H :   -0.085722
  45 H :   -0.048521
  46 H :   -0.081938
  47 H :   -0.076382
  48 H :   -0.047820
  49 H :   -0.051893
  50 H :   -0.077533
  51 H :   -0.051359
  52 H :   -0.070276
  53 H :   -0.076385
  54 H :   -0.051067
  55 H :   -0.115442
  56 H :   -0.076662
  57 H :   -0.047040
  58 H :   -0.072684
  59 H :   -0.058039
  60 H :   -0.049759
  61 H :   -0.080053
  62 H :   -0.070248
  63 H :   -0.049515
  64 H :   -0.079185
  65 H :   -0.108884

  Mayer bond orders larger than 0.100000
B(  0-Ru,  1-Se) :   0.2703 B(  0-Ru,  2-P ) :   0.4935 B(  0-Ru,  3-P ) :   0.3070
B(  0-Ru,  4-P ) :   0.4544 B(  0-Ru,  5-P ) :   0.5239 B(  0-Ru, 12-C ) :   0.1144
B(  0-Ru, 14-C ) :   0.1500 B(  0-Ru, 16-C ) :   0.1485 B(  0-Ru, 18-C ) :   0.1121
B(  0-Ru, 21-C ) :   0.1191 B(  0-Ru, 24-H ) :   0.7147 B(  0-Ru, 29-H ) :   0.3681
B(  1-Se,  3-P ) :  -0.2460 B(  1-Se,  4-P ) :   0.2030 B(  1-Se,  5-P ) :   0.1688
B(  1-Se,  6-C ) :   0.7388 B(  1-Se, 11-C ) :   0.1715 B(  1-Se, 29-H ) :   0.2741
B(  2-P ,  3-P ) :   0.4733 B(  2-P ,  4-P ) :  -0.1199 B(  2-P ,  5-P ) :   0.2209
B(  2-P , 12-C ) :   0.3466 B(  2-P , 13-C ) :   0.3871 B(  2-P , 14-C ) :   0.5083
B(  2-P , 24-H ) :  -0.2299 B(  3-P , 15-C ) :   0.4171 B(  3-P , 16-C ) :   0.4378
B(  3-P , 17-C ) :   0.3334 B(  3-P , 24-H ) :   0.1878 B(  4-P ,  5-P ) :   0.2487
B(  4-P , 18-C ) :   0.4674 B(  4-P , 19-C ) :   0.4543 B(  4-P , 20-C ) :   0.5093
B(  4-P , 24-H ) :  -0.1232 B(  5-P , 21-C ) :   0.5695 B(  5-P , 22-C ) :   0.4036
B(  5-P , 23-C ) :   0.4262 B(  5-P , 29-H ) :  -0.1192 B(  6-C ,  7-C ) :   1.0532
B(  6-C , 10-C ) :   0.1140 B(  6-C , 11-C ) :   1.1328 B(  6-C , 25-H ) :  -0.1578
B(  6-C , 29-H ) :  -0.2224 B(  7-C ,  8-C ) :   1.2581 B(  7-C , 10-C ) :   0.1403
B(  7-C , 11-C ) :  -0.5071 B(  7-C , 25-H ) :   1.1380 B(  7-C , 26-H ) :  -0.1162
B(  8-C ,  9-C ) :   1.1359 B(  8-C , 10-C ) :   0.1019 B(  8-C , 11-C ) :  -0.1583
B(  8-C , 25-H ) :  -0.1136 B(  8-C , 26-H ) :   1.1590 B(  8-C , 27-H ) :  -0.1301
B(  9-C , 10-C ) :   1.2029 B(  9-C , 11-C ) :  -0.1540 B(  9-C , 26-H ) :  -0.1146
B(  9-C , 27-H ) :   1.1649 B(  9-C , 28-H ) :  -0.1291 B( 10-C , 11-C ) :   0.5789
B( 10-C , 27-H ) :  -0.1202 B( 10-C , 28-H ) :   1.2156 B( 10-C , 29-H ) :  -0.1192
B( 11-C , 24-H ) :  -0.1283 B( 11-C , 28-H ) :  -0.1728 B( 11-C , 29-H ) :   0.7796
B( 12-C , 13-C ) :   0.1230 B( 12-C , 14-C ) :   0.2032 B( 12-C , 30-H ) :   1.0606
B( 12-C , 31-H ) :   1.0173 B( 12-C , 32-H ) :   1.0012 B( 13-C , 14-C ) :   0.1502
B( 13-C , 33-H ) :   1.0159 B( 13-C , 34-H ) :   1.0512 B( 13-C , 35-H ) :   1.0288
B( 14-C , 36-H ) :   1.0691 B( 14-C , 37-H ) :   1.0308 B( 14-C , 38-H ) :   1.0100
B( 15-C , 16-C ) :   0.1394 B( 15-C , 17-C ) :   0.1467 B( 15-C , 39-H ) :   1.0086
B( 15-C , 40-H ) :   1.0500 B( 15-C , 41-H ) :   1.0505 B( 16-C , 17-C ) :   0.1899
B( 16-C , 42-H ) :   1.0460 B( 16-C , 43-H ) :   1.0221 B( 16-C , 44-H ) :   1.0149
B( 17-C , 45-H ) :   1.0209 B( 17-C , 46-H ) :   1.0097 B( 17-C , 47-H ) :   1.0385
B( 18-C , 19-C ) :   0.1534 B( 18-C , 20-C ) :   0.1481 B( 18-C , 48-H ) :   0.9884
B( 18-C , 49-H ) :   1.0407 B( 18-C , 50-H ) :   1.0268 B( 19-C , 20-C ) :   0.1749
B( 19-C , 51-H ) :   1.0060 B( 19-C , 52-H ) :   1.0698 B( 19-C , 53-H ) :   1.0073
B( 20-C , 54-H ) :   1.0216 B( 20-C , 55-H ) :   1.0461 B( 20-C , 56-H ) :   1.0280
B( 21-C , 22-C ) :   0.1274 B( 21-C , 23-C ) :   0.1369 B( 21-C , 57-H ) :   0.9724
B( 21-C , 58-H ) :   1.0537 B( 21-C , 59-H ) :   1.0434 B( 22-C , 23-C ) :   0.1726
B( 22-C , 60-H ) :   1.0236 B( 22-C , 61-H ) :   1.0224 B( 22-C , 62-H ) :   1.0390
B( 23-C , 63-H ) :   1.0178 B( 23-C , 64-H ) :   1.0053 B( 23-C , 65-H ) :   1.0148
B( 24-H , 29-H ) :   0.1213

MP2 TOTAL ENERGY:    -4571.990719828 Eh
Dispersion correction           -0.103107369
FINAL SINGLE POINT ENERGY     -4572.093827197175

DIPOLE MOMENT
-------------
                                X             Y             Z
Electronic contribution:      6.93982       3.75887      -7.26042
Nuclear contribution   :     -4.37445      -3.89216       7.69405
                        -----------------------------------------
Total Dipole Moment    :      2.56537      -0.13328       0.43363
                        -----------------------------------------
Magnitude (a.u.)       :      2.60517
Magnitude (Debye)      :      6.62182

Rotational constants in cm-1:     0.006518     0.004113     0.003881
Rotational constants in MHz :   195.407297   123.317842   116.359449

                             ****ORCA TERMINATED NORMALLY****
TOTAL RUN TIME: 0 days 0 hours 14 minutes 58 seconds 437 msec
