                         Program Version 4.2.0 -  RELEASE  -
|  1> #
|  2> # TMB01_R2 ri-B2PLYP-D3BJ/Def2-TZVPPD
|  3> #
|  4> ! rijk ri-b2plyp d3bj def2-tzvppd def2/jk def2-tzvppd/c grid4 nofinalgrid
|  5>
|  6> *xyz 0 1
|  7> C        0.000000    0.000000    0.598253
|  8> C        0.000000    0.000000   -0.598253
|  9> H        0.000000    0.000000    1.662161
| 10> H        0.000000    0.000000   -1.662161
| 11> *
| 12>
| 13> %maxcore 5000
| 14>
| 15> %pal
| 16> nprocs = 24
| 17> end
| 18>
| 19>
| 20>                          ****END OF INPUT****

CARTESIAN COORDINATES (ANGSTROEM)
---------------------------------
  C      0.000000    0.000000    0.598253
  C      0.000000    0.000000   -0.598253
  H      0.000000    0.000000    1.662161
  H      0.000000    0.000000   -1.662161

 Total Charge           Charge          ....    0
 Multiplicity           Mult            ....    1
 Number of Electrons    NEL             ....   14
 Basis Dimension        Dim             ....  108

ORBITAL ENERGIES
----------------

  NO   OCC          E(Eh)            E(eV)
   0   2.0000     -10.625789      -289.1424
   1   2.0000     -10.622562      -289.0546
   2   2.0000      -0.872691       -23.7471
   3   2.0000      -0.653288       -17.7769
   4   2.0000      -0.577603       -15.7174
   5   2.0000      -0.347647        -9.4600
   6   2.0000      -0.347647        -9.4600
   7   0.0000       0.042108         1.1458
   8   0.0000       0.057740         1.5712
   9   0.0000       0.072636         1.9765
  10   0.0000       0.072636         1.9765
  11   0.0000       0.111654         3.0383

MULLIKEN ATOMIC CHARGES
-----------------------
   0 C :   -0.053015
   1 C :   -0.052696
   2 H :    0.052850
   3 H :    0.052861
Sum of atomic charges:    0.0000000

LOEWDIN ATOMIC CHARGES
----------------------
   0 C :    0.098341
   1 C :    0.098341
   2 H :   -0.098341
   3 H :   -0.098341

  Mayer bond orders larger than 0.100000
B(  0-C ,  1-C ) :   2.7911 B(  0-C ,  2-H ) :   1.0378 B(  1-C ,  3-H ) :   1.0378

MP2 TOTAL ENERGY:      -77.293304890 Eh
Dispersion correction           -0.001002197
FINAL SINGLE POINT ENERGY       -77.294307086839

DIPOLE MOMENT
-------------
                                X             Y             Z
Electronic contribution:      0.00000       0.00000      -0.00000
Nuclear contribution   :      0.00000       0.00000       0.00000
                        -----------------------------------------
Total Dipole Moment    :      0.00000       0.00000      -0.00000
                        -----------------------------------------
Magnitude (a.u.)       :      0.00000
Magnitude (Debye)      :      0.00000

Rotational constants in cm-1:     0.000000     1.189890     1.189890
Rotational constants in MHz :     0.000000 35672.008035 35672.008035

                             ****ORCA TERMINATED NORMALLY****
TOTAL RUN TIME: 0 days 0 hours 0 minutes 3 seconds 180 msec
