                         Program Version 4.2.0 -  RELEASE  -
|  1> #
|  2> # TMB01_R1 ri-B2PLYP-D3BJ/Def2-TZVPPD
|  3> #
|  4> ! rijk ri-b2plyp d3bj def2-tzvppd def2/jk def2-tzvppd/c grid4 nofinalgrid
|  5>
|  6> *xyz 0 1
|  7> Zr      -0.000671    0.112924   -0.223454
|  8> C       -2.181938   -0.834851   -1.042825
|  9> C       -1.643164   -1.771750   -0.135830
| 10> C       -2.502306    0.332733   -0.316676
| 11> H       -1.308937   -2.768103   -0.380464
| 12> C       -1.636664   -1.184419    1.151214
| 13> H       -2.895434    1.248967   -0.729119
| 14> C       -2.175001    0.113493    1.036510
| 15> H       -1.306352   -1.655857    2.064126
| 16> H       -2.282924    0.831022    1.835850
| 17> C        1.600796   -1.794999   -0.006343
| 18> C        2.125532   -0.971960   -1.023204
| 19> C        1.653632   -1.076274    1.213076
| 20> H        2.228565   -1.232630   -2.063673
| 21> C        2.505388    0.254502   -0.432287
| 22> H        1.350619   -1.442345    2.182051
| 23> C        2.228391    0.183709    0.945544
| 24> H        2.903936    1.111956   -0.952399
| 25> H        2.382975    0.976423    1.661482
| 26> Cl       0.011968    2.512474    0.074703
| 27> H       -0.001250   -0.010619   -2.053074
| 28> H       -2.330784   -0.986753   -2.099038
| 29> H        1.234974   -2.802168   -0.132604
| 30> *
| 31>
| 32> %maxcore 5000
| 33>
| 34> %pal
| 35> nprocs = 24
| 36> end
| 37>
| 38>
| 39>                          ****END OF INPUT****

CARTESIAN COORDINATES (ANGSTROEM)
---------------------------------
  Zr    -0.000671    0.112924   -0.223454
  C     -2.181938   -0.834851   -1.042825
  C     -1.643164   -1.771750   -0.135830
  C     -2.502306    0.332733   -0.316676
  H     -1.308937   -2.768103   -0.380464
  C     -1.636664   -1.184419    1.151214
  H     -2.895434    1.248967   -0.729119
  C     -2.175001    0.113493    1.036510
  H     -1.306352   -1.655857    2.064126
  H     -2.282924    0.831022    1.835850
  C      1.600796   -1.794999   -0.006343
  C      2.125532   -0.971960   -1.023204
  C      1.653632   -1.076274    1.213076
  H      2.228565   -1.232630   -2.063673
  C      2.505388    0.254502   -0.432287
  H      1.350619   -1.442345    2.182051
  C      2.228391    0.183709    0.945544
  H      2.903936    1.111956   -0.952399
  H      2.382975    0.976423    1.661482
  Cl     0.011968    2.512474    0.074703
  H     -0.001250   -0.010619   -2.053074
  H     -2.330784   -0.986753   -2.099038
  H      1.234974   -2.802168   -0.132604

 Total Charge           Charge          ....    0
 Multiplicity           Mult            ....    1
 Number of Electrons    NEL             ....  100
 Basis Dimension        Dim             ....  664

ORBITAL ENERGIES
----------------

  NO   OCC          E(Eh)            E(eV)
   0   2.0000    -102.849508     -2798.6774
   1   2.0000     -10.636999      -289.4475
   2   2.0000     -10.636255      -289.4272
   3   2.0000     -10.635721      -289.4127
   4   2.0000     -10.635571      -289.4086
   5   2.0000     -10.634803      -289.3877
   6   2.0000     -10.634459      -289.3783
   7   2.0000     -10.633334      -289.3477
   8   2.0000     -10.632990      -289.3384
   9   2.0000     -10.628720      -289.2222
  10   2.0000     -10.628466      -289.2153
  11   2.0000      -9.856581      -268.2112
  12   2.0000      -7.493110      -203.8979
  13   2.0000      -7.492485      -203.8809
  14   2.0000      -7.491706      -203.8597
  15   2.0000      -2.304875       -62.7188
  16   2.0000      -1.382614       -37.6228
  17   2.0000      -1.378623       -37.5142
  18   2.0000      -1.370474       -37.2925
  19   2.0000      -1.025908       -27.9164
  20   2.0000      -1.014061       -27.5940
  21   2.0000      -0.867495       -23.6057
  22   2.0000      -0.836192       -22.7539
  23   2.0000      -0.835407       -22.7326
  24   2.0000      -0.834156       -22.6985
  25   2.0000      -0.830874       -22.6092
  26   2.0000      -0.649923       -17.6853
  27   2.0000      -0.644880       -17.5481
  28   2.0000      -0.641006       -17.4427
  29   2.0000      -0.640426       -17.4269
  30   2.0000      -0.626540       -17.0490
  31   2.0000      -0.618998       -16.8438
  32   2.0000      -0.490447       -13.3457
  33   2.0000      -0.483651       -13.1608
  34   2.0000      -0.482583       -13.1317
  35   2.0000      -0.480523       -13.0757
  36   2.0000      -0.478140       -13.0108
  37   2.0000      -0.461941       -12.5701
  38   2.0000      -0.459838       -12.5128
  39   2.0000      -0.457547       -12.4505
  40   2.0000      -0.456568       -12.4238
  41   2.0000      -0.449390       -12.2285
  42   2.0000      -0.380582       -10.3562
  43   2.0000      -0.362205        -9.8561
  44   2.0000      -0.352011        -9.5787
  45   2.0000      -0.327431        -8.9099
  46   2.0000      -0.316263        -8.6060
  47   2.0000      -0.311005        -8.4629
  48   2.0000      -0.294216        -8.0060
  49   2.0000      -0.282339        -7.6828
  50   0.0000      -0.007587        -0.2065
  51   0.0000       0.022156         0.6029
  52   0.0000       0.028746         0.7822
  53   0.0000       0.037221         1.0128
  54   0.0000       0.038572         1.0496

MULLIKEN ATOMIC CHARGES
-----------------------
   0 Zr:    0.289162
   1 C :    0.139464
   2 C :    0.075276
   3 C :   -0.015543
   4 H :    0.056431
   5 C :   -0.058035
   6 H :    0.013857
   7 C :   -0.015564
   8 H :    0.040422
   9 H :   -0.009649
  10 C :    0.154740
  11 C :    0.068595
  12 C :   -0.101243
  13 H :   -0.001698
  14 C :   -0.044240
  15 H :    0.037412
  16 C :    0.031956
  17 H :    0.004754
  18 H :   -0.000560
  19 Cl:   -0.557079
  20 H :   -0.215923
  21 H :    0.021529
  22 H :    0.085936
Sum of atomic charges:    0.0000000

LOEWDIN ATOMIC CHARGES
----------------------
   0 Zr:    0.434950
   1 C :   -0.067106
   2 C :   -0.058089
   3 C :   -0.074948
   4 H :    0.005188
   5 C :   -0.052955
   6 H :    0.005874
   7 C :   -0.061869
   8 H :    0.006027
   9 H :    0.006773
  10 C :   -0.057456
  11 C :   -0.065666
  12 C :   -0.054490
  13 H :   -0.000012
  14 C :   -0.071124
  15 H :    0.005134
  16 C :   -0.066705
  17 H :    0.008191
  18 H :    0.004593
  19 Cl:    0.170824
  20 H :   -0.021881
  21 H :   -0.000449
  22 H :    0.005198

  Mayer bond orders larger than 0.100000
B(  0-Zr,  1-C ) :   0.2675 B(  0-Zr,  2-C ) :   0.3463 B(  0-Zr,  3-C ) :   0.4328
B(  0-Zr,  5-C ) :   0.3661 B(  0-Zr,  7-C ) :   0.3388 B(  0-Zr, 10-C ) :   0.3029
B(  0-Zr, 11-C ) :   0.2643 B(  0-Zr, 12-C ) :   0.4103 B(  0-Zr, 14-C ) :   0.4292
B(  0-Zr, 16-C ) :   0.3395 B(  0-Zr, 19-Cl) :   0.7849 B(  0-Zr, 20-H ) :   0.9214
B(  1-C ,  2-C ) :   1.3159 B(  1-C ,  3-C ) :   1.2973 B(  1-C , 21-H ) :   0.9419
B(  2-C ,  3-C ) :  -0.1123 B(  2-C ,  4-H ) :   0.9038 B(  2-C ,  5-C ) :   1.2920
B(  2-C ,  7-C ) :  -0.1270 B(  3-C ,  5-C ) :  -0.1204 B(  3-C ,  6-H ) :   0.9420
B(  3-C ,  7-C ) :   1.3276 B(  5-C ,  7-C ) :   1.2980 B(  5-C ,  8-H ) :   0.9414
B(  7-C ,  9-H ) :   0.9879 B( 10-C , 11-C ) :   1.3062 B( 10-C , 12-C ) :   1.2906
B( 10-C , 14-C ) :  -0.1146 B( 10-C , 16-C ) :  -0.1491 B( 10-C , 22-H ) :   0.8819
B( 11-C , 13-H ) :   0.9609 B( 11-C , 14-C ) :   1.3222 B( 12-C , 14-C ) :  -0.1287
B( 12-C , 15-H ) :   0.9583 B( 12-C , 16-C ) :   1.2511 B( 14-C , 16-C ) :   1.3584
B( 14-C , 17-H ) :   0.9424 B( 16-C , 18-H ) :   0.9809

MP2 TOTAL ENERGY:     -894.679325464 Eh
Dispersion correction           -0.028799551
FINAL SINGLE POINT ENERGY      -894.708125014718

DIPOLE MOMENT
-------------
                                X             Y             Z
Electronic contribution:     -0.01705      13.01776     -12.56901
Nuclear contribution   :      0.01059     -14.41688      13.08524
                        -----------------------------------------
Total Dipole Moment    :     -0.00645      -1.39911       0.51623
                        -----------------------------------------
Magnitude (a.u.)       :      1.49132
Magnitude (Debye)      :      3.79065

Rotational constants in cm-1:     0.033538     0.025044     0.018059
Rotational constants in MHz :  1005.445647   750.792016   541.402542

                             ****ORCA TERMINATED NORMALLY****
TOTAL RUN TIME: 0 days 0 hours 0 minutes 51 seconds 434 msec
