                         Program Version 4.2.0 -  RELEASE  -
|  1> #
|  2> # TMB09_T1 ri-B2PLYP-D3BJ/Def2-TZVPPD
|  3> #
|  4> ! rijk ri-b2plyp d3bj def2-tzvppd def2/jk def2-tzvppd/c grid4 nofinalgrid
|  5>
|  6> *xyz 0 1
|  7> Mo       0.144293   -0.018278    0.187956
|  8> C       -1.882744   -1.070987   -0.485243
|  9> C       -1.076439    2.809087   -0.488683
| 10> H       -1.056313    3.572787    0.310053
| 11> H       -2.117393    2.730299   -0.852689
| 12> H       -0.453643    3.172151   -1.326804
| 13> C        1.996084   -2.290843   -0.946924
| 14> C        2.556730    1.794509   -0.039409
| 15> N       -0.610025    1.553803    0.004719
| 16> O        1.936938    0.565567   -0.322724
| 17> O        0.833025   -1.766355   -0.360705
| 18> H        1.780871   -2.689531   -1.957376
| 19> H        2.380311   -3.126092   -0.331250
| 20> H        2.779790   -1.516765   -1.025980
| 21> H        3.470410    1.892833   -0.654307
| 22> H        2.854397    1.863620    1.026056
| 23> H        1.897937    2.657406   -0.259961
| 24> C       -0.134457   -0.284271    2.087106
| 25> C       -1.864166   -1.358035    0.884748
| 26> H        0.299474   -1.167843    2.578202
| 27> H       -0.661177    0.399181    2.762773
| 28> H       -1.449974   -2.303708    1.234049
| 29> H       -2.567349   -0.858578    1.555883
| 30> C       -2.930318   -0.174171   -1.105185
| 31> H       -2.557155    0.344677   -2.001613
| 32> H       -3.799822   -0.779414   -1.421129
| 33> H       -3.293476    0.582538   -0.393193
| 34> H       -1.444854   -1.827941   -1.140932
| 35> *
| 36>
| 37> %maxcore 5000
| 38>
| 39> %pal
| 40> nprocs = 24
| 41> end
| 42>
| 43>
| 44>                          ****END OF INPUT****

CARTESIAN COORDINATES (ANGSTROEM)
---------------------------------
  Mo     0.144293   -0.018278    0.187956
  C     -1.882744   -1.070987   -0.485243
  C     -1.076439    2.809087   -0.488683
  H     -1.056313    3.572787    0.310053
  H     -2.117393    2.730299   -0.852689
  H     -0.453643    3.172151   -1.326804
  C      1.996084   -2.290843   -0.946924
  C      2.556730    1.794509   -0.039409
  N     -0.610025    1.553803    0.004719
  O      1.936938    0.565567   -0.322724
  O      0.833025   -1.766355   -0.360705
  H      1.780871   -2.689531   -1.957376
  H      2.380311   -3.126092   -0.331250
  H      2.779790   -1.516765   -1.025980
  H      3.470410    1.892833   -0.654307
  H      2.854397    1.863620    1.026056
  H      1.897937    2.657406   -0.259961
  C     -0.134457   -0.284271    2.087106
  C     -1.864166   -1.358035    0.884748
  H      0.299474   -1.167843    2.578202
  H     -0.661177    0.399181    2.762773
  H     -1.449974   -2.303708    1.234049
  H     -2.567349   -0.858578    1.555883
  C     -2.930318   -0.174171   -1.105185
  H     -2.557155    0.344677   -2.001613
  H     -3.799822   -0.779414   -1.421129
  H     -3.293476    0.582538   -0.393193
  H     -1.444854   -1.827941   -1.140932

 Total Charge           Charge          ....    0
 Multiplicity           Mult            ....    1
 Number of Electrons    NEL             ....   96
 Basis Dimension        Dim             ....  721

ORBITAL ENERGIES
----------------

  NO   OCC          E(Eh)            E(eV)
   0   2.0000     -19.677224      -535.4445
   1   2.0000     -19.676067      -535.4130
   2   2.0000     -14.832499      -403.6128
   3   2.0000     -10.655746      -289.9576
   4   2.0000     -10.647413      -289.7308
   5   2.0000     -10.639167      -289.5065
   6   2.0000     -10.634882      -289.3898
   7   2.0000     -10.633518      -289.3527
   8   2.0000     -10.627791      -289.1969
   9   2.0000     -10.619159      -288.9620
  10   2.0000      -2.824688       -76.8637
  11   2.0000      -1.767945       -48.1082
  12   2.0000      -1.755918       -47.7809
  13   2.0000      -1.747918       -47.5633
  14   2.0000      -1.088330       -29.6150
  15   2.0000      -1.079697       -29.3800
  16   2.0000      -0.955726       -26.0066
  17   2.0000      -0.918390       -24.9907
  18   2.0000      -0.807048       -21.9609
  19   2.0000      -0.755160       -20.5490
  20   2.0000      -0.742572       -20.2064
  21   2.0000      -0.735712       -20.0197
  22   2.0000      -0.716237       -19.4898
  23   2.0000      -0.660540       -17.9742
  24   2.0000      -0.559374       -15.2213
  25   2.0000      -0.526041       -14.3143
  26   2.0000      -0.515653       -14.0316
  27   2.0000      -0.513187       -13.9645
  28   2.0000      -0.508493       -13.8368
  29   2.0000      -0.503950       -13.7132
  30   2.0000      -0.497317       -13.5327
  31   2.0000      -0.492009       -13.3883
  32   2.0000      -0.484341       -13.1796
  33   2.0000      -0.479757       -13.0548
  34   2.0000      -0.476153       -12.9568
  35   2.0000      -0.458590       -12.4789
  36   2.0000      -0.453902       -12.3513
  37   2.0000      -0.446236       -12.1427
  38   2.0000      -0.421908       -11.4807
  39   2.0000      -0.409922       -11.1545
  40   2.0000      -0.368913       -10.0386
  41   2.0000      -0.348541        -9.4843
  42   2.0000      -0.340670        -9.2701
  43   2.0000      -0.322750        -8.7825
  44   2.0000      -0.321031        -8.7357
  45   2.0000      -0.301525        -8.2049
  46   2.0000      -0.291155        -7.9227
  47   2.0000      -0.262055        -7.1309
  48   0.0000       0.000285         0.0078
  49   0.0000       0.012745         0.3468
  50   0.0000       0.022428         0.6103
  51   0.0000       0.028531         0.7764
  52   0.0000       0.035819         0.9747

MULLIKEN ATOMIC CHARGES
-----------------------
   0 Mo:    0.831280
   1 C :    0.272824
   2 C :   -0.267488
   3 H :    0.107864
   4 H :    0.103649
   5 H :    0.137368
   6 C :   -0.198958
   7 C :   -0.074422
   8 N :   -0.666715
   9 O :   -0.587860
  10 O :   -0.476194
  11 H :    0.084205
  12 H :    0.070594
  13 H :    0.089263
  14 H :    0.049325
  15 H :    0.049357
  16 H :    0.043393
  17 C :    0.102283
  18 C :    0.079168
  19 H :    0.095881
  20 H :    0.075525
  21 H :    0.166814
  22 H :    0.103320
  23 C :   -0.659891
  24 H :    0.053299
  25 H :    0.121447
  26 H :    0.071564
  27 H :    0.223105
Sum of atomic charges:   -0.0000000

LOEWDIN ATOMIC CHARGES
----------------------
   0 Mo:    1.198618
   1 C :   -0.188707
   2 C :    0.011334
   3 H :   -0.007291
   4 H :   -0.020687
   5 H :   -0.007841
   6 C :    0.005060
   7 C :   -0.015400
   8 N :   -0.130445
   9 O :   -0.377407
  10 O :   -0.368940
  11 H :   -0.006843
  12 H :   -0.006468
  13 H :   -0.022202
  14 H :   -0.006619
  15 H :   -0.008632
  16 H :   -0.025553
  17 C :    0.077970
  18 C :    0.073822
  19 H :   -0.085303
  20 H :   -0.091498
  21 H :   -0.018478
  22 H :   -0.011253
  23 C :    0.088141
  24 H :   -0.015704
  25 H :   -0.007772
  26 H :   -0.018194
  27 H :   -0.013709

  Mayer bond orders larger than 0.100000
B(  0-Mo,  1-C ) :   0.6836 B(  0-Mo,  2-C ) :   0.1147 B(  0-Mo,  8-N ) :   1.4595
B(  0-Mo,  9-O ) :   0.7610 B(  0-Mo, 10-O ) :   0.7867 B(  0-Mo, 17-C ) :   1.6125
B(  0-Mo, 18-C ) :   0.3069 B(  0-Mo, 23-C ) :   0.1670 B(  1-C , 10-O ) :  -0.1320
B(  1-C , 18-C ) :   1.1649 B(  1-C , 23-C ) :   0.8887 B(  1-C , 27-H ) :   0.9252
B(  2-C ,  3-H ) :   1.0246 B(  2-C ,  4-H ) :   0.9862 B(  2-C ,  5-H ) :   1.0015
B(  2-C ,  8-N ) :   0.5757 B(  6-C , 10-O ) :   0.8711 B(  6-C , 11-H ) :   1.0313
B(  6-C , 12-H ) :   1.0378 B(  6-C , 13-H ) :   0.9957 B(  7-C ,  9-O ) :   0.9030
B(  7-C , 14-H ) :   1.0428 B(  7-C , 15-H ) :   1.0235 B(  7-C , 16-H ) :   0.9836
B( 17-C , 18-C ) :   0.1540 B( 17-C , 19-H ) :   1.0312 B( 17-C , 20-H ) :   1.0321
B( 18-C , 21-H ) :   0.9523 B( 18-C , 22-H ) :   1.0293 B( 23-C , 24-H ) :   1.0358
B( 23-C , 25-H ) :   1.0286 B( 23-C , 26-H ) :   1.0320

MP2 TOTAL ENERGY:     -550.125577293 Eh
Dispersion correction           -0.026890719
FINAL SINGLE POINT ENERGY      -550.152468012480

DIPOLE MOMENT
-------------
                                X             Y             Z
Electronic contribution:     10.53752      -2.98575      13.36609
Nuclear contribution   :    -11.80214       3.30573     -13.02417
                        -----------------------------------------
Total Dipole Moment    :     -1.26462       0.31998       0.34191
                        -----------------------------------------
Magnitude (a.u.)       :      1.34854
Magnitude (Debye)      :      3.42770

Rotational constants in cm-1:     0.031577     0.026703     0.018834
Rotational constants in MHz :   946.666634   800.534327   564.625423

                             ****ORCA TERMINATED NORMALLY****
TOTAL RUN TIME: 0 days 0 hours 1 minutes 7 seconds 734 msec
