                         Program Version 4.2.0 -  RELEASE  -
|  1> #
|  2> # TMB08_C1 ri-B2PLYP-D3BJ/Def2-TZVPPD
|  3> #
|  4> ! rijk ri-b2plyp d3bj def2-tzvppd def2/jk def2-tzvppd/c grid4 nofinalgrid
|  5>
|  6> *xyz -1 1
|  7> O       -0.906881    0.014085    1.547895
|  8> Mo       0.376053    0.005978   -0.001071
|  9> O       -1.663172   -0.405524   -0.725982
| 10> S        1.900189   -1.271673    1.262125
| 11> C        2.414735   -2.638587    0.321741
| 12> C        1.961707   -2.798175   -0.938062
| 13> S        0.862636   -1.648766   -1.631530
| 14> S        1.558394    1.801029    0.984387
| 15> C        1.596911    3.127556   -0.137889
| 16> C        1.038164    3.004113   -1.358311
| 17> S        0.284978    1.511994   -1.829576
| 18> S       -2.828559   -0.609282    0.265517
| 19> C       -3.471491    1.031204    0.628759
| 20> H       -2.700467    1.513975    1.240208
| 21> H       -3.606824    1.576556   -0.316000
| 22> H       -4.419892    0.937929    1.179101
| 23> C       -4.093537   -1.069425   -0.932883
| 24> H       -3.796770   -2.046338   -1.337942
| 25> H       -5.068961   -1.152599   -0.429186
| 26> H       -4.123504   -0.329731   -1.745777
| 27> C       -0.609178    0.103975    2.901511
| 28> H       -0.060534    1.039756    3.130388
| 29> H       -1.547958    0.094647    3.495802
| 30> H        0.020434   -0.743420    3.237520
| 31> H        2.283338   -3.631534   -1.572173
| 32> H        3.135734   -3.322762    0.781228
| 33> H        1.069667    3.809818   -2.099793
| 34> H        2.115872    4.037362    0.182319
| 35> *
| 36>
| 37> %maxcore 5000
| 38>
| 39> %pal
| 40> nprocs = 24
| 41> end
| 42>
| 43>
| 44>                          ****END OF INPUT****

CARTESIAN COORDINATES (ANGSTROEM)
---------------------------------
  O     -0.906881    0.014085    1.547895
  Mo     0.376053    0.005978   -0.001071
  O     -1.663172   -0.405524   -0.725982
  S      1.900189   -1.271673    1.262125
  C      2.414735   -2.638587    0.321741
  C      1.961707   -2.798175   -0.938062
  S      0.862636   -1.648766   -1.631530
  S      1.558394    1.801029    0.984387
  C      1.596911    3.127556   -0.137889
  C      1.038164    3.004113   -1.358311
  S      0.284978    1.511994   -1.829576
  S     -2.828559   -0.609282    0.265517
  C     -3.471491    1.031204    0.628759
  H     -2.700467    1.513975    1.240208
  H     -3.606824    1.576556   -0.316000
  H     -4.419892    0.937929    1.179101
  C     -4.093537   -1.069425   -0.932883
  H     -3.796770   -2.046338   -1.337942
  H     -5.068961   -1.152599   -0.429186
  H     -4.123504   -0.329731   -1.745777
  C     -0.609178    0.103975    2.901511
  H     -0.060534    1.039756    3.130388
  H     -1.547958    0.094647    3.495802
  H      0.020434   -0.743420    3.237520
  H      2.283338   -3.631534   -1.572173
  H      3.135734   -3.322762    0.781228
  H      1.069667    3.809818   -2.099793
  H      2.115872    4.037362    0.182319

 Total Charge           Charge          ....   -1
 Multiplicity           Mult            ....    1
 Number of Electrons    NEL             ....  166
 Basis Dimension        Dim             ....  871

ORBITAL ENERGIES
----------------

  NO   OCC          E(Eh)            E(eV)
   0   2.0000     -90.170736     -2453.6705
   1   2.0000     -89.981523     -2448.5217
   2   2.0000     -89.980667     -2448.4984
   3   2.0000     -89.978022     -2448.4264
   4   2.0000     -89.977334     -2448.4077
   5   2.0000     -19.604379      -533.4623
   6   2.0000     -19.565759      -532.4114
   7   2.0000     -10.559927      -287.3502
   8   2.0000     -10.555068      -287.2180
   9   2.0000     -10.521613      -286.3076
  10   2.0000     -10.491702      -285.4937
  11   2.0000     -10.491672      -285.4929
  12   2.0000     -10.490545      -285.4622
  13   2.0000     -10.489998      -285.4474
  14   2.0000      -8.362118      -227.5448
  15   2.0000      -8.187562      -222.7949
  16   2.0000      -8.186630      -222.7695
  17   2.0000      -8.184085      -222.7003
  18   2.0000      -8.183342      -222.6800
  19   2.0000      -6.208446      -168.9404
  20   2.0000      -6.208085      -168.9306
  21   2.0000      -6.204142      -168.8233
  22   2.0000      -6.033766      -164.1871
  23   2.0000      -6.032889      -164.1633
  24   2.0000      -6.030864      -164.1082
  25   2.0000      -6.030352      -164.0942
  26   2.0000      -6.030084      -164.0869
  27   2.0000      -6.029819      -164.0797
  28   2.0000      -6.029615      -164.0742
  29   2.0000      -6.029224      -164.0635
  30   2.0000      -6.027135      -164.0067
  31   2.0000      -6.026781      -163.9970
  32   2.0000      -6.026342      -163.9851
  33   2.0000      -6.026075      -163.9778
  34   2.0000      -2.651746       -72.1577
  35   2.0000      -1.592556       -43.3357
  36   2.0000      -1.585457       -43.1425
  37   2.0000      -1.570910       -42.7466
  38   2.0000      -1.058907       -28.8143
  39   2.0000      -0.979492       -26.6533
  40   2.0000      -0.823167       -22.3995
  41   2.0000      -0.785126       -21.3644
  42   2.0000      -0.782319       -21.2880
  43   2.0000      -0.738843       -20.1050
  44   2.0000      -0.671126       -18.2623
  45   2.0000      -0.668199       -18.1826
  46   2.0000      -0.630077       -17.1453
  47   2.0000      -0.613441       -16.6926
  48   2.0000      -0.599560       -16.3149
  49   2.0000      -0.583646       -15.8818
  50   2.0000      -0.463958       -12.6249
  51   2.0000      -0.461340       -12.5537
  52   2.0000      -0.457377       -12.4459
  53   2.0000      -0.449897       -12.2423
  54   2.0000      -0.446298       -12.1444
  55   2.0000      -0.406128       -11.0513
  56   2.0000      -0.405023       -11.0212
  57   2.0000      -0.402597       -10.9552
  58   2.0000      -0.400676       -10.9030
  59   2.0000      -0.392351       -10.6764
  60   2.0000      -0.382941       -10.4204
  61   2.0000      -0.372608       -10.1392
  62   2.0000      -0.359376        -9.7791
  63   2.0000      -0.338821        -9.2198
  64   2.0000      -0.323608        -8.8058
  65   2.0000      -0.285731        -7.7751
  66   2.0000      -0.273465        -7.4414
  67   2.0000      -0.262923        -7.1545
  68   2.0000      -0.260279        -7.0825
  69   2.0000      -0.250201        -6.8083
  70   2.0000      -0.248956        -6.7744
  71   2.0000      -0.232957        -6.3391
  72   2.0000      -0.213310        -5.8045
  73   2.0000      -0.210068        -5.7162
  74   2.0000      -0.204115        -5.5542
  75   2.0000      -0.183253        -4.9866
  76   2.0000      -0.170405        -4.6369
  77   2.0000      -0.166467        -4.5298
  78   2.0000      -0.141177        -3.8416
  79   2.0000      -0.133598        -3.6354
  80   2.0000      -0.112870        -3.0713
  81   2.0000      -0.095034        -2.5860
  82   2.0000      -0.071458        -1.9445
  83   0.0000       0.084111         2.2888
  84   0.0000       0.109897         2.9904
  85   0.0000       0.114720         3.1217
  86   0.0000       0.122285         3.3276
  87   0.0000       0.129507         3.5241

MULLIKEN ATOMIC CHARGES
-----------------------
   0 O :   -0.153597
   1 Mo:   -0.033476
   2 O :   -0.414920
   3 S :   -0.333765
   4 C :    0.165257
   5 C :    0.147218
   6 S :   -0.314520
   7 S :   -0.318062
   8 C :    0.148893
   9 C :    0.146736
  10 S :   -0.325609
  11 S :    0.651980
  12 C :   -0.282551
  13 H :    0.079563
  14 H :    0.115620
  15 H :    0.124542
  16 C :   -0.300641
  17 H :    0.084211
  18 H :    0.099819
  19 H :    0.083682
  20 C :   -0.229393
  21 H :    0.092719
  22 H :    0.010283
  23 H :    0.058704
  24 H :   -0.084789
  25 H :   -0.066417
  26 H :   -0.080629
  27 H :   -0.070858
Sum of atomic charges:   -1.0000000

LOEWDIN ATOMIC CHARGES
----------------------
   0 O :   -0.571621
   1 Mo:    0.329173
   2 O :   -0.718947
   3 S :    0.541599
   4 C :   -0.597528
   5 C :   -0.613309
   6 S :    0.520507
   7 S :    0.533587
   8 C :   -0.601959
   9 C :   -0.613285
  10 S :    0.516365
  11 S :    0.997339
  12 C :    0.004243
  13 H :   -0.044375
  14 H :   -0.027838
  15 H :   -0.035575
  16 C :   -0.030584
  17 H :   -0.038243
  18 H :   -0.042237
  19 H :   -0.033784
  20 C :   -0.077148
  21 H :   -0.041949
  22 H :   -0.010385
  23 H :   -0.043793
  24 H :   -0.074747
  25 H :   -0.074910
  26 H :   -0.075520
  27 H :   -0.075076

  Mayer bond orders larger than 0.100000
B(  0-O ,  1-Mo) :   0.5256 B(  0-O ,  2-O ) :  -0.1693 B(  0-O ,  3-S ) :  -0.1130
B(  0-O ,  7-S ) :  -0.1178 B(  0-O , 20-C ) :   0.9735 B(  1-Mo,  2-O ) :   0.3310
B(  1-Mo,  3-S ) :   1.3443 B(  1-Mo,  6-S ) :   1.3144 B(  1-Mo,  7-S ) :   1.2574
B(  1-Mo, 10-S ) :   1.2781 B(  2-O ,  6-S ) :  -0.1578 B(  2-O , 11-S ) :   1.3582
B(  3-S ,  4-C ) :   0.9308 B(  3-S ,  7-S ) :  -0.1011 B(  4-C ,  5-C ) :   1.6340
B(  4-C , 24-H ) :  -0.1615 B(  4-C , 25-H ) :   1.1420 B(  5-C ,  6-S ) :   0.9667
B(  5-C , 24-H ) :   1.1417 B(  5-C , 25-H ) :  -0.1579 B(  7-S ,  8-C ) :   0.9572
B(  8-C ,  9-C ) :   1.6414 B(  8-C , 26-H ) :  -0.1529 B(  8-C , 27-H ) :   1.1436
B(  9-C , 10-S ) :   0.9794 B(  9-C , 26-H ) :   1.1359 B(  9-C , 27-H ) :  -0.1597
B( 11-S , 12-C ) :   0.8634 B( 11-S , 16-C ) :   0.8145 B( 12-C , 13-H ) :   1.0263
B( 12-C , 14-H ) :   0.9838 B( 12-C , 15-H ) :   0.9886 B( 16-C , 17-H ) :   1.0210
B( 16-C , 18-H ) :   0.9835 B( 16-C , 19-H ) :   1.0109 B( 20-C , 21-H ) :   0.9920
B( 20-C , 22-H ) :   1.0281 B( 20-C , 23-H ) :   1.0142

MP2 TOTAL ENERGY:    -2483.566187301 Eh
Dispersion correction           -0.047093959
FINAL SINGLE POINT ENERGY     -2483.613281260007

DIPOLE MOMENT
-------------
                                X             Y             Z
Electronic contribution:     33.49816      -1.19291      -4.14225
Nuclear contribution   :    -37.01048       1.06082       4.72052
                        -----------------------------------------
Total Dipole Moment    :     -3.51232      -0.13209       0.57828
                        -----------------------------------------
Magnitude (a.u.)       :      3.56206
Magnitude (Debye)      :      9.05403

Rotational constants in cm-1:     0.012467     0.009914     0.008398
Rotational constants in MHz :   373.762122   297.203486   251.777416

                             ****ORCA TERMINATED NORMALLY****
TOTAL RUN TIME: 0 days 0 hours 2 minutes 3 seconds 422 msec
