                         Program Version 4.2.0 -  RELEASE  -
|  1> #
|  2> # TMB06_T1 ri-B2PLYP-D3BJ/Def2-TZVPPD
|  3> #
|  4> ! rijk ri-b2plyp d3bj def2-tzvppd def2/jk def2-tzvppd/c grid4 nofinalgrid
|  5>
|  6> *xyz -2 1
|  7> C       -5.371545   -2.136160    0.336278
|  8> C       -4.697063   -0.763740    0.262018
|  9> O       -4.978822    0.003309   -0.707502
| 10> O       -3.902613   -0.505987    1.212120
| 11> C        2.635057   -0.678655    2.396830
| 12> S        2.063323    1.004526    1.938677
| 13> C        2.314937   -2.581636   -1.299530
| 14> S        0.864820   -2.286095   -0.358137
| 15> C        3.240953   -1.614445   -1.507242
| 16> S        2.972432   -0.000985   -0.910324
| 17> C       -0.891125    2.751712   -1.395439
| 18> S        0.528832    2.543841   -0.360303
| 19> C       -1.489329    1.702419   -2.015371
| 20> S       -0.828634    0.070077   -1.896647
| 21> W        0.627788    0.033115    0.107608
| 22> O       -2.320739    1.386691    1.151938
| 23> C       -0.689027   -0.837880    1.297595
| 24> C       -0.745952    0.472117    1.605961
| 25> H       -4.850130   -2.819358   -0.346804
| 26> H       -5.250819   -2.525653    1.350280
| 27> H        1.778524   -1.298220    2.681124
| 28> H        3.117621   -1.144410    1.536216
| 29> H       -3.029141    0.618126    1.100277
| 30> H       -2.171098    1.699602    0.245945
| 31> H       -1.140104   -1.782909    1.572954
| 32> H       -0.640990    1.084034    2.487860
| 33> H       -1.256518    3.767648   -1.529996
| 34> H       -2.404891    1.822493   -2.590760
| 35> H        3.371580   -0.608085    3.204035
| 36> H        2.423780   -3.583247   -1.710229
| 37> H        4.191166   -1.850203   -1.981855
| 38> H       -6.431678   -2.086675    0.066661
| 39> *
| 40>
| 41> %maxcore 5000
| 42>
| 43> %pal
| 44> nprocs = 24
| 45> end
| 46>
| 47>
| 48>                          ****END OF INPUT****

CARTESIAN COORDINATES (ANGSTROEM)
---------------------------------
  C     -5.371545   -2.136160    0.336278
  C     -4.697063   -0.763740    0.262018
  O     -4.978822    0.003309   -0.707502
  O     -3.902613   -0.505987    1.212120
  C      2.635057   -0.678655    2.396830
  S      2.063323    1.004526    1.938677
  C      2.314937   -2.581636   -1.299530
  S      0.864820   -2.286095   -0.358137
  C      3.240953   -1.614445   -1.507242
  S      2.972432   -0.000985   -0.910324
  C     -0.891125    2.751712   -1.395439
  S      0.528832    2.543841   -0.360303
  C     -1.489329    1.702419   -2.015371
  S     -0.828634    0.070077   -1.896647
  W      0.627788    0.033115    0.107608
  O     -2.320739    1.386691    1.151938
  C     -0.689027   -0.837880    1.297595
  C     -0.745952    0.472117    1.605961
  H     -4.850130   -2.819358   -0.346804
  H     -5.250819   -2.525653    1.350280
  H      1.778524   -1.298220    2.681124
  H      3.117621   -1.144410    1.536216
  H     -3.029141    0.618126    1.100277
  H     -2.171098    1.699602    0.245945
  H     -1.140104   -1.782909    1.572954
  H     -0.640990    1.084034    2.487860
  H     -1.256518    3.767648   -1.529996
  H     -2.404891    1.822493   -2.590760
  H      3.371580   -0.608085    3.204035
  H      2.423780   -3.583247   -1.710229
  H      4.191166   -1.850203   -1.981855
  H     -6.431678   -2.086675    0.066661

 Total Charge           Charge          ....   -2
 Multiplicity           Mult            ....    1
 Number of Electrons    NEL             ....  188
 Basis Dimension        Dim             .... 1005

ORBITAL ENERGIES
----------------

  NO   OCC          E(Eh)            E(eV)
   0   2.0000     -89.920802     -2446.8694
   1   2.0000     -89.900523     -2446.3176
   2   2.0000     -89.896621     -2446.2114
   3   2.0000     -89.887717     -2445.9691
   4   2.0000     -89.884677     -2445.8864
   5   2.0000     -19.486469      -530.2538
   6   2.0000     -19.446547      -529.1675
   7   2.0000     -19.431419      -528.7558
   8   2.0000     -10.487368      -285.3758
   9   2.0000     -10.430820      -283.8370
  10   2.0000     -10.423517      -283.6383
  11   2.0000     -10.421987      -283.5967
  12   2.0000     -10.415578      -283.4223
  13   2.0000     -10.412346      -283.3343
  14   2.0000     -10.411621      -283.3146
  15   2.0000     -10.400602      -283.0148
  16   2.0000     -10.382035      -282.5095
  17   2.0000      -8.126062      -221.1214
  18   2.0000      -8.106287      -220.5833
  19   2.0000      -8.101932      -220.4648
  20   2.0000      -8.093137      -220.2255
  21   2.0000      -8.090448      -220.1523
  22   2.0000      -5.972264      -162.5136
  23   2.0000      -5.969311      -162.4332
  24   2.0000      -5.968548      -162.4124
  25   2.0000      -5.952697      -161.9811
  26   2.0000      -5.949331      -161.8895
  27   2.0000      -5.948635      -161.8706
  28   2.0000      -5.948433      -161.8651
  29   2.0000      -5.945434      -161.7835
  30   2.0000      -5.944001      -161.7445
  31   2.0000      -5.939781      -161.6297
  32   2.0000      -5.937186      -161.5590
  33   2.0000      -5.936557      -161.5419
  34   2.0000      -5.935210      -161.5053
  35   2.0000      -5.934353      -161.4820
  36   2.0000      -5.931601      -161.4071
  37   2.0000      -2.973154       -80.9036
  38   2.0000      -1.549651       -42.1681
  39   2.0000      -1.547536       -42.1106
  40   2.0000      -1.542778       -41.9811
  41   2.0000      -0.946470       -25.7547
  42   2.0000      -0.904452       -24.6114
  43   2.0000      -0.844489       -22.9797
  44   2.0000      -0.713423       -19.4132
  45   2.0000      -0.692995       -18.8574
  46   2.0000      -0.645952       -17.5773
  47   2.0000      -0.632146       -17.2016
  48   2.0000      -0.617615       -16.8062
  49   2.0000      -0.599917       -16.3246
  50   2.0000      -0.578370       -15.7382
  51   2.0000      -0.527433       -14.3522
  52   2.0000      -0.506948       -13.7948
  53   2.0000      -0.474368       -12.9082
  54   2.0000      -0.422505       -11.4970
  55   2.0000      -0.405046       -11.0219
  56   2.0000      -0.393688       -10.7128
  57   2.0000      -0.377061       -10.2604
  58   2.0000      -0.345422        -9.3994
  59   2.0000      -0.334905        -9.1132
  60   2.0000      -0.324897        -8.8409
  61   2.0000      -0.316702        -8.6179
  62   2.0000      -0.292008        -7.9459
  63   2.0000      -0.287849        -7.8328
  64   2.0000      -0.284402        -7.7390
  65   2.0000      -0.283824        -7.7232
  66   2.0000      -0.272108        -7.4044
  67   2.0000      -0.258387        -7.0311
  68   2.0000      -0.243862        -6.6358
  69   2.0000      -0.228081        -6.2064
  70   2.0000      -0.218949        -5.9579
  71   2.0000      -0.214259        -5.8303
  72   2.0000      -0.198002        -5.3879
  73   2.0000      -0.191933        -5.2228
  74   2.0000      -0.184030        -5.0077
  75   2.0000      -0.172862        -4.7038
  76   2.0000      -0.164766        -4.4835
  77   2.0000      -0.154481        -4.2036
  78   2.0000      -0.146334        -3.9820
  79   2.0000      -0.129119        -3.5135
  80   2.0000      -0.118356        -3.2206
  81   2.0000      -0.110403        -3.0042
  82   2.0000      -0.095873        -2.6088
  83   2.0000      -0.094913        -2.5827
  84   2.0000      -0.090087        -2.4514
  85   2.0000      -0.087233        -2.3737
  86   2.0000      -0.076746        -2.0884
  87   2.0000      -0.069872        -1.9013
  88   2.0000      -0.069086        -1.8799
  89   2.0000      -0.057224        -1.5571
  90   2.0000      -0.040211        -1.0942
  91   2.0000      -0.029020        -0.7897
  92   2.0000      -0.014407        -0.3920
  93   2.0000       0.013083         0.3560
  94   0.0000       0.179860         4.8942
  95   0.0000       0.181805         4.9472
  96   0.0000       0.192690         5.2434
  97   0.0000       0.197031         5.3615
  98   0.0000       0.199594         5.4312

MULLIKEN ATOMIC CHARGES
-----------------------
   0 C :   -0.371380
   1 C :    0.727993
   2 O :   -0.744413
   3 O :   -0.661092
   4 C :    0.059191
   5 S :   -0.614578
   6 C :    0.193443
   7 S :   -0.445251
   8 C :    0.116329
   9 S :   -0.462593
  10 C :    0.186937
  11 S :   -0.538496
  12 C :    0.145222
  13 S :   -0.485345
  14 W :    0.609099
  15 O :   -0.576374
  16 C :   -0.143837
  17 C :    0.582117
  18 H :    0.013465
  19 H :    0.105757
  20 H :    0.064004
  21 H :    0.009444
  22 H :    0.453940
  23 H :    0.247186
  24 H :   -0.155232
  25 H :   -0.106300
  26 H :   -0.077570
  27 H :   -0.089694
  28 H :    0.076111
  29 H :   -0.081317
  30 H :   -0.097526
  31 H :    0.060760
Sum of atomic charges:   -2.0000000

LOEWDIN ATOMIC CHARGES
----------------------
   0 C :    0.169325
   1 C :   -0.616111
   2 O :   -0.094498
   3 O :    0.013297
   4 C :   -0.318381
   5 S :    0.398269
   6 C :   -0.564048
   7 S :    0.596844
   8 C :   -0.595653
   9 S :    0.480582
  10 C :   -0.593629
  11 S :    0.465446
  12 C :   -0.575508
  13 S :    0.521961
  14 W :    0.202214
  15 O :    0.319737
  16 C :   -0.233216
  17 C :   -0.232323
  18 H :   -0.019634
  19 H :   -0.031786
  20 H :   -0.092655
  21 H :   -0.131503
  22 H :   -0.282641
  23 H :   -0.230361
  24 H :   -0.065904
  25 H :   -0.051605
  26 H :   -0.078357
  27 H :   -0.068110
  28 H :   -0.089431
  29 H :   -0.090028
  30 H :   -0.082388
  31 H :   -0.029907

  Mayer bond orders larger than 0.100000
B(  0-C ,  1-C ) :   0.8638 B(  0-C , 18-H ) :   1.0400 B(  0-C , 19-H ) :   1.0165
B(  0-C , 31-H ) :   1.0564 B(  1-C ,  2-O ) :   1.5036 B(  1-C ,  3-O ) :   1.3654
B(  3-O , 22-H ) :   0.1550 B(  4-C ,  5-S ) :   0.7734 B(  4-C ,  9-S ) :  -0.1264
B(  4-C , 20-H ) :   1.0273 B(  4-C , 21-H ) :   0.9568 B(  4-C , 28-H ) :   0.9983
B(  5-S , 14-W ) :   0.8394 B(  6-C ,  7-S ) :   0.9308 B(  6-C ,  8-C ) :   1.4769
B(  6-C , 29-H ) :   1.1491 B(  6-C , 30-H ) :  -0.1560 B(  7-S , 14-W ) :   1.0664
B(  8-C ,  9-S ) :   1.0377 B(  8-C , 29-H ) :  -0.1358 B(  8-C , 30-H ) :   1.1692
B(  9-S , 14-W ) :   0.8250 B( 10-C , 11-S ) :   1.0529 B( 10-C , 12-C ) :   1.3670
B( 10-C , 26-H ) :   1.1731 B( 10-C , 27-H ) :  -0.2052 B( 11-S , 14-W ) :   0.7771
B( 12-C , 13-S ) :   1.0379 B( 12-C , 26-H ) :  -0.1628 B( 12-C , 27-H ) :   1.2075
B( 13-S , 14-W ) :   0.9373 B( 14-W , 16-C ) :   1.3479 B( 14-W , 17-C ) :   0.8106
B( 15-O , 17-C ) :   0.1070 B( 15-O , 22-H ) :   0.5923 B( 15-O , 23-H ) :   0.9123
B( 16-C , 17-C ) :   1.2760 B( 16-C , 24-H ) :   1.0085 B( 17-C , 25-H ) :   1.0971

MP2 TOTAL ENERGY:    -2634.382746939 Eh
Dispersion correction           -0.053303213
FINAL SINGLE POINT ENERGY     -2634.436050151681

DIPOLE MOMENT
-------------
                                X             Y             Z
Electronic contribution:     97.80971       9.23179      10.92477
Nuclear contribution   :    -95.08812     -10.49452     -10.64317
                        -----------------------------------------
Total Dipole Moment    :      2.72159      -1.26273       0.28160
                        -----------------------------------------
Magnitude (a.u.)       :      3.01344
Magnitude (Debye)      :      7.65956

Rotational constants in cm-1:     0.011727     0.005648     0.005281
Rotational constants in MHz :   351.552196   169.313101   158.324155

                             ****ORCA TERMINATED NORMALLY****
TOTAL RUN TIME: 0 days 0 hours 3 minutes 2 seconds 711 msec
