                         Program Version 4.2.0 -  RELEASE  -
|  1> #
|  2> # TMB01_T1 ri-B2PLYP-D3BJ/Def2-TZVPPD
|  3> #
|  4> ! rijk ri-b2plyp d3bj def2-tzvppd def2/jk def2-tzvppd/c grid4 nofinalgrid
|  5>
|  6> *xyz 0 1
|  7> Zr       0.019829   -0.026802    0.120636
|  8> C        2.239874   -0.374444    1.245397
|  9> C        1.976783   -1.521588    0.474285
| 10> C        2.416443    0.711808    0.354001
| 11> H        1.819060   -2.516470    0.858019
| 12> C        2.001810   -1.148643   -0.895658
| 13> H        2.608112    1.737773    0.630719
| 14> C        2.298913    0.223349   -0.961356
| 15> H        1.861573   -1.806504   -1.739184
| 16> H        2.356666    0.814844   -1.859655
| 17> C       -1.057190   -2.235373    0.523484
| 18> C       -1.856346   -1.294393    1.201077
| 19> C       -1.167009   -1.987955   -0.868757
| 20> H       -2.005770   -1.236737    2.266001
| 21> C       -2.451652   -0.457501    0.227470
| 22> H       -0.689853   -2.550694   -1.656100
| 23> C       -2.043033   -0.903228   -1.046149
| 24> H       -3.108339    0.375352    0.426641
| 25> H       -2.305042   -0.449162   -1.987488
| 26> Cl      -0.345437    1.661478   -1.736503
| 27> C       -1.133945    2.698822    1.012771
| 28> C       -0.495222    2.377308    1.980322
| 29> H       -1.676629    3.004729    0.150271
| 30> H       -0.029188    0.104247    1.943645
| 31> H        0.041631    2.180985    2.876056
| 32> H        2.316195   -0.336400    2.319120
| 33> H       -0.485725   -3.023975    0.985751
| 34> *
| 35>
| 36> %maxcore 5000
| 37>
| 38> %pal
| 39> nprocs = 24
| 40> end
| 41>
| 42>
| 43>                          ****END OF INPUT****

CARTESIAN COORDINATES (ANGSTROEM)
---------------------------------
  Zr     0.019829   -0.026802    0.120636
  C      2.239874   -0.374444    1.245397
  C      1.976783   -1.521588    0.474285
  C      2.416443    0.711808    0.354001
  H      1.819060   -2.516470    0.858019
  C      2.001810   -1.148643   -0.895658
  H      2.608112    1.737773    0.630719
  C      2.298913    0.223349   -0.961356
  H      1.861573   -1.806504   -1.739184
  H      2.356666    0.814844   -1.859655
  C     -1.057190   -2.235373    0.523484
  C     -1.856346   -1.294393    1.201077
  C     -1.167009   -1.987955   -0.868757
  H     -2.005770   -1.236737    2.266001
  C     -2.451652   -0.457501    0.227470
  H     -0.689853   -2.550694   -1.656100
  C     -2.043033   -0.903228   -1.046149
  H     -3.108339    0.375352    0.426641
  H     -2.305042   -0.449162   -1.987488
  Cl    -0.345437    1.661478   -1.736503
  C     -1.133945    2.698822    1.012771
  C     -0.495222    2.377308    1.980322
  H     -1.676629    3.004729    0.150271
  H     -0.029188    0.104247    1.943645
  H      0.041631    2.180985    2.876056
  H      2.316195   -0.336400    2.319120
  H     -0.485725   -3.023975    0.985751

 Total Charge           Charge          ....    0
 Multiplicity           Mult            ....    1
 Number of Electrons    NEL             ....  114
 Basis Dimension        Dim             ....  772

ORBITAL ENERGIES
----------------

  NO   OCC          E(Eh)            E(eV)
   0   2.0000    -102.826170     -2798.0423
   1   2.0000     -10.638726      -289.4944
   2   2.0000     -10.633624      -289.3556
   3   2.0000     -10.633280      -289.3463
   4   2.0000     -10.632160      -289.3158
   5   2.0000     -10.629119      -289.2330
   6   2.0000     -10.628417      -289.2139
   7   2.0000     -10.627900      -289.1998
   8   2.0000     -10.627821      -289.1977
   9   2.0000     -10.627363      -289.1853
  10   2.0000     -10.627160      -289.1797
  11   2.0000     -10.624113      -289.0968
  12   2.0000     -10.623958      -289.0926
  13   2.0000      -9.833435      -267.5814
  14   2.0000      -7.470335      -203.2781
  15   2.0000      -7.468901      -203.2391
  16   2.0000      -7.468740      -203.2348
  17   2.0000      -2.300022       -62.5868
  18   2.0000      -1.378441       -37.5093
  19   2.0000      -1.372613       -37.3507
  20   2.0000      -1.365079       -37.1457
  21   2.0000      -1.020163       -27.7600
  22   2.0000      -1.008599       -27.4454
  23   2.0000      -0.887603       -24.1529
  24   2.0000      -0.848617       -23.0920
  25   2.0000      -0.830810       -22.6075
  26   2.0000      -0.830257       -22.5925
  27   2.0000      -0.828899       -22.5555
  28   2.0000      -0.824343       -22.4315
  29   2.0000      -0.661277       -17.9943
  30   2.0000      -0.645516       -17.5654
  31   2.0000      -0.640113       -17.4183
  32   2.0000      -0.635561       -17.2945
  33   2.0000      -0.634454       -17.2644
  34   2.0000      -0.621980       -16.9249
  35   2.0000      -0.613345       -16.6900
  36   2.0000      -0.584057       -15.8930
  37   2.0000      -0.486395       -13.2355
  38   2.0000      -0.479278       -13.0418
  39   2.0000      -0.477922       -13.0049
  40   2.0000      -0.475977       -12.9520
  41   2.0000      -0.472047       -12.8451
  42   2.0000      -0.457566       -12.4510
  43   2.0000      -0.454713       -12.3734
  44   2.0000      -0.452210       -12.3053
  45   2.0000      -0.450296       -12.2532
  46   2.0000      -0.443783       -12.0759
  47   2.0000      -0.388011       -10.5583
  48   2.0000      -0.366913        -9.9842
  49   2.0000      -0.356142        -9.6911
  50   2.0000      -0.345195        -9.3932
  51   2.0000      -0.332005        -9.0343
  52   2.0000      -0.316774        -8.6199
  53   2.0000      -0.314066        -8.5462
  54   2.0000      -0.297927        -8.1070
  55   2.0000      -0.275587        -7.4991
  56   2.0000      -0.267783        -7.2867
  57   0.0000       0.014166         0.3855
  58   0.0000       0.021546         0.5863
  59   0.0000       0.031149         0.8476
  60   0.0000       0.033356         0.9077
  61   0.0000       0.040137         1.0922

MULLIKEN ATOMIC CHARGES
-----------------------
   0 Zr:   -0.349385
   1 C :    0.077305
   2 C :    0.157101
   3 C :    0.026859
   4 H :    0.104314
   5 C :    0.015507
   6 H :    0.066443
   7 C :   -0.050595
   8 H :    0.056286
   9 H :    0.056931
  10 C :    0.021347
  11 C :    0.017033
  12 C :    0.107329
  13 H :    0.058801
  14 C :    0.026193
  15 H :    0.062321
  16 C :   -0.016384
  17 H :    0.148087
  18 H :    0.013511
  19 Cl:   -0.639490
  20 C :   -0.113253
  21 C :    0.004452
  22 H :    0.099886
  23 H :   -0.121311
  24 H :    0.058569
  25 H :    0.040841
  26 H :    0.071302
Sum of atomic charges:   -0.0000000

LOEWDIN ATOMIC CHARGES
----------------------
   0 Zr:    0.525507
   1 C :   -0.060680
   2 C :   -0.056600
   3 C :   -0.052773
   4 H :    0.003077
   5 C :   -0.047746
   6 H :    0.009287
   7 C :   -0.081813
   8 H :    0.007541
   9 H :   -0.012817
  10 C :   -0.057452
  11 C :   -0.056592
  12 C :   -0.046047
  13 H :    0.001698
  14 C :   -0.055149
  15 H :    0.008192
  16 C :   -0.074775
  17 H :    0.006096
  18 H :   -0.009593
  19 Cl:    0.131226
  20 C :    0.046138
  21 C :    0.072032
  22 H :   -0.108461
  23 H :   -0.015424
  24 H :   -0.078316
  25 H :    0.000403
  26 H :    0.003042

  Mayer bond orders larger than 0.100000
B(  0-Zr,  1-C ) :   0.2519 B(  0-Zr,  2-C ) :   0.4103 B(  0-Zr,  3-C ) :   0.4604
B(  0-Zr,  5-C ) :   0.4960 B(  0-Zr,  7-C ) :   0.4375 B(  0-Zr, 10-C ) :   0.4924
B(  0-Zr, 11-C ) :   0.3015 B(  0-Zr, 12-C ) :   0.4138 B(  0-Zr, 14-C ) :   0.4889
B(  0-Zr, 16-C ) :   0.3423 B(  0-Zr, 19-Cl) :   0.6109 B(  0-Zr, 20-C ) :   0.2465
B(  0-Zr, 23-H ) :   0.9832 B(  1-C ,  2-C ) :   1.3724 B(  1-C ,  3-C ) :   1.3078
B(  1-C , 23-H ) :  -0.1203 B(  1-C , 25-H ) :   0.9319 B(  2-C ,  4-H ) :   0.8589
B(  2-C ,  5-C ) :   1.1810 B(  2-C ,  7-C ) :  -0.1072 B(  3-C ,  6-H ) :   0.9410
B(  3-C ,  7-C ) :   1.2911 B(  5-C ,  7-C ) :   1.3078 B(  5-C ,  8-H ) :   0.9228
B(  7-C ,  9-H ) :   0.9348 B( 10-C , 11-C ) :   1.3956 B( 10-C , 12-C ) :   1.2065
B( 10-C , 26-H ) :   0.8790 B( 11-C , 13-H ) :   0.9366 B( 11-C , 14-C ) :   1.3356
B( 12-C , 15-H ) :   0.9023 B( 12-C , 16-C ) :   1.2816 B( 14-C , 16-C ) :   1.3284
B( 14-C , 17-H ) :   0.8921 B( 14-C , 19-Cl) :  -0.1187 B( 16-C , 18-H ) :   0.9496
B( 18-H , 19-Cl) :   0.1014 B( 20-C , 21-C ) :   2.5485 B( 20-C , 22-H ) :   1.0440
B( 20-C , 24-H ) :  -0.1484 B( 21-C , 24-H ) :   1.1426

MP2 TOTAL ENERGY:     -971.962607908 Eh
Dispersion correction           -0.035668360
FINAL SINGLE POINT ENERGY      -971.998276267943

DIPOLE MOMENT
-------------
                                X             Y             Z
Electronic contribution:      0.48638       2.10340       2.55081
Nuclear contribution   :     -0.31433      -2.93943      -1.59819
                        -----------------------------------------
Total Dipole Moment    :      0.17206      -0.83603       0.95262
                        -----------------------------------------
Magnitude (a.u.)       :      1.27908
Magnitude (Debye)      :      3.25115

Rotational constants in cm-1:     0.021527     0.019953     0.016159
Rotational constants in MHz :   645.375909   598.178243   484.447118

                             ****ORCA TERMINATED NORMALLY****
TOTAL RUN TIME: 0 days 0 hours 1 minutes 26 seconds 300 msec
