                         Program Version 4.2.0 -  RELEASE  -
|  1> #
|  2> # TMB08_T1 ri-B2PLYP-D3BJ/Def2-TZVPPD
|  3> #
|  4> ! rijk ri-b2plyp d3bj def2-tzvppd def2/jk def2-tzvppd/c grid4 nofinalgrid
|  5>
|  6> *xyz -1 1
|  7> O       -0.864683   -0.641223    1.501083
|  8> Mo       0.288309   -0.030923   -0.005993
|  9> O       -1.184159   -0.828813   -0.891579
| 10> S        2.210721   -0.462566    1.360243
| 11> C        3.288131   -1.501862    0.490518
| 12> C        2.967024   -1.951648   -0.740634
| 13> S        1.453819   -1.539049   -1.466752
| 14> S        0.162904    2.082815    1.150192
| 15> C        0.198674    3.373932   -0.002877
| 16> C        0.341525    3.101047   -1.316307
| 17> S        0.442237    1.474962   -1.896418
| 18> S       -2.702756   -1.277235    0.090908
| 19> C       -3.341924    0.299743    0.636465
| 20> H       -3.337931    0.314090    1.732942
| 21> H       -2.648387    1.079744    0.273451
| 22> H       -4.358042    0.459892    0.247281
| 23> C       -3.587204   -1.408361   -1.466934
| 24> H       -3.173718   -2.281309   -1.989593
| 25> H       -4.662596   -1.555426   -1.282985
| 26> H       -3.398030   -0.511824   -2.074907
| 27> C       -0.765264   -0.491871    2.877457
| 28> H       -0.827293    0.572940    3.181404
| 29> H       -1.595209   -1.039646    3.369476
| 30> H        0.192972   -0.897436    3.256104
| 31> H        3.640777   -2.597035   -1.314559
| 32> H        4.229728   -1.767232    0.982509
| 33> H        0.401774    3.897233   -2.066529
| 34> H        0.141166    4.396366    0.384198
| 35> *
| 36>
| 37> %maxcore 5000
| 38>
| 39> %pal
| 40> nprocs = 24
| 41> end
| 42>
| 43>
| 44>                          ****END OF INPUT****

CARTESIAN COORDINATES (ANGSTROEM)
---------------------------------
  O     -0.864683   -0.641223    1.501083
  Mo     0.288309   -0.030923   -0.005993
  O     -1.184159   -0.828813   -0.891579
  S      2.210721   -0.462566    1.360243
  C      3.288131   -1.501862    0.490518
  C      2.967024   -1.951648   -0.740634
  S      1.453819   -1.539049   -1.466752
  S      0.162904    2.082815    1.150192
  C      0.198674    3.373932   -0.002877
  C      0.341525    3.101047   -1.316307
  S      0.442237    1.474962   -1.896418
  S     -2.702756   -1.277235    0.090908
  C     -3.341924    0.299743    0.636465
  H     -3.337931    0.314090    1.732942
  H     -2.648387    1.079744    0.273451
  H     -4.358042    0.459892    0.247281
  C     -3.587204   -1.408361   -1.466934
  H     -3.173718   -2.281309   -1.989593
  H     -4.662596   -1.555426   -1.282985
  H     -3.398030   -0.511824   -2.074907
  C     -0.765264   -0.491871    2.877457
  H     -0.827293    0.572940    3.181404
  H     -1.595209   -1.039646    3.369476
  H      0.192972   -0.897436    3.256104
  H      3.640777   -2.597035   -1.314559
  H      4.229728   -1.767232    0.982509
  H      0.401774    3.897233   -2.066529
  H      0.141166    4.396366    0.384198

 Total Charge           Charge          ....   -1
 Multiplicity           Mult            ....    1
 Number of Electrons    NEL             ....  166
 Basis Dimension        Dim             ....  871

ORBITAL ENERGIES
----------------

  NO   OCC          E(Eh)            E(eV)
   0   2.0000     -90.144644     -2452.9605
   1   2.0000     -89.982868     -2448.5583
   2   2.0000     -89.981020     -2448.5080
   3   2.0000     -89.980412     -2448.4915
   4   2.0000     -89.979737     -2448.4731
   5   2.0000     -19.617988      -533.8326
   6   2.0000     -19.575856      -532.6861
   7   2.0000     -10.557831      -287.2932
   8   2.0000     -10.557275      -287.2781
   9   2.0000     -10.528613      -286.4981
  10   2.0000     -10.494744      -285.5765
  11   2.0000     -10.493545      -285.5439
  12   2.0000     -10.493274      -285.5365
  13   2.0000     -10.492070      -285.5038
  14   2.0000      -8.340486      -226.9562
  15   2.0000      -8.189378      -222.8443
  16   2.0000      -8.187268      -222.7869
  17   2.0000      -8.186486      -222.7656
  18   2.0000      -8.185629      -222.7423
  19   2.0000      -6.186176      -168.3344
  20   2.0000      -6.185370      -168.3125
  21   2.0000      -6.182546      -168.2356
  22   2.0000      -6.035634      -164.2380
  23   2.0000      -6.033499      -164.1799
  24   2.0000      -6.032723      -164.1588
  25   2.0000      -6.032469      -164.1518
  26   2.0000      -6.032099      -164.1418
  27   2.0000      -6.031945      -164.1376
  28   2.0000      -6.030234      -164.0910
  29   2.0000      -6.030103      -164.0875
  30   2.0000      -6.029608      -164.0740
  31   2.0000      -6.029068      -164.0593
  32   2.0000      -6.028558      -164.0454
  33   2.0000      -6.028380      -164.0406
  34   2.0000      -2.670323       -72.6632
  35   2.0000      -1.610748       -43.8307
  36   2.0000      -1.602559       -43.6078
  37   2.0000      -1.592212       -43.3263
  38   2.0000      -0.994426       -27.0597
  39   2.0000      -0.963311       -26.2130
  40   2.0000      -0.834720       -22.7139
  41   2.0000      -0.787915       -21.4403
  42   2.0000      -0.785086       -21.3633
  43   2.0000      -0.734482       -19.9863
  44   2.0000      -0.675204       -18.3732
  45   2.0000      -0.672198       -18.2915
  46   2.0000      -0.638479       -17.3739
  47   2.0000      -0.617253       -16.7963
  48   2.0000      -0.600593       -16.3430
  49   2.0000      -0.586628       -15.9629
  50   2.0000      -0.464836       -12.6488
  51   2.0000      -0.460125       -12.5206
  52   2.0000      -0.450048       -12.2464
  53   2.0000      -0.445128       -12.1126
  54   2.0000      -0.431775       -11.7492
  55   2.0000      -0.408446       -11.1144
  56   2.0000      -0.406267       -11.0551
  57   2.0000      -0.403902       -10.9907
  58   2.0000      -0.395818       -10.7708
  59   2.0000      -0.394469       -10.7340
  60   2.0000      -0.381549       -10.3825
  61   2.0000      -0.363530        -9.8922
  62   2.0000      -0.342272        -9.3137
  63   2.0000      -0.323314        -8.7978
  64   2.0000      -0.310691        -8.4543
  65   2.0000      -0.296712        -8.0740
  66   2.0000      -0.288090        -7.8393
  67   2.0000      -0.271565        -7.3897
  68   2.0000      -0.264654        -7.2016
  69   2.0000      -0.256015        -6.9665
  70   2.0000      -0.251234        -6.8364
  71   2.0000      -0.239556        -6.5187
  72   2.0000      -0.222415        -6.0522
  73   2.0000      -0.218582        -5.9479
  74   2.0000      -0.205516        -5.5924
  75   2.0000      -0.185825        -5.0566
  76   2.0000      -0.166020        -4.5176
  77   2.0000      -0.163769        -4.4564
  78   2.0000      -0.146125        -3.9763
  79   2.0000      -0.141176        -3.8416
  80   2.0000      -0.112159        -3.0520
  81   2.0000      -0.092124        -2.5068
  82   2.0000      -0.070108        -1.9077
  83   0.0000       0.086304         2.3485
  84   0.0000       0.103383         2.8132
  85   0.0000       0.111379         3.0308
  86   0.0000       0.116623         3.1735
  87   0.0000       0.121504         3.3063

MULLIKEN ATOMIC CHARGES
-----------------------
   0 O :   -0.341124
   1 Mo:    0.348780
   2 O :   -0.313008
   3 S :   -0.357205
   4 C :    0.163510
   5 C :    0.195302
   6 S :   -0.366982
   7 S :   -0.398478
   8 C :    0.137625
   9 C :    0.172406
  10 S :   -0.332446
  11 S :    0.181069
  12 C :    0.025971
  13 H :    0.080933
  14 H :   -0.045197
  15 H :    0.140457
  16 C :   -0.164334
  17 H :    0.076504
  18 H :    0.092910
  19 H :    0.070864
  20 C :   -0.267073
  21 H :    0.096507
  22 H :    0.032921
  23 H :    0.092299
  24 H :   -0.090232
  25 H :   -0.074032
  26 H :   -0.081324
  27 H :   -0.076619
Sum of atomic charges:   -1.0000000

LOEWDIN ATOMIC CHARGES
----------------------
   0 O :   -0.574278
   1 Mo:    0.378163
   2 O :   -0.703838
   3 S :    0.546449
   4 C :   -0.608201
   5 C :   -0.613100
   6 S :    0.531657
   7 S :    0.546087
   8 C :   -0.610206
   9 C :   -0.628013
  10 S :    0.511594
  11 S :    1.073442
  12 C :   -0.054621
  13 H :   -0.043709
  14 H :   -0.041778
  15 H :   -0.040746
  16 C :   -0.084050
  17 H :   -0.041223
  18 H :   -0.047727
  19 H :   -0.030690
  20 C :   -0.076053
  21 H :   -0.043399
  22 H :   -0.007698
  23 H :   -0.039602
  24 H :   -0.073756
  25 H :   -0.074511
  26 H :   -0.074726
  27 H :   -0.075468

  Mayer bond orders larger than 0.100000
B(  0-O ,  1-Mo) :   0.5095 B(  0-O , 11-S ) :   0.1074 B(  0-O , 20-C ) :   0.9566
B(  1-Mo,  2-O ) :   0.8073 B(  1-Mo,  3-S ) :   1.2373 B(  1-Mo,  6-S ) :   1.2889
B(  1-Mo,  7-S ) :   1.0501 B(  1-Mo, 10-S ) :   1.1172 B(  1-Mo, 11-S ) :   0.2625
B(  2-O ,  6-S ) :  -0.1261 B(  2-O , 11-S ) :   0.8100 B(  3-S ,  4-C ) :   0.9224
B(  4-C ,  5-C ) :   1.6316 B(  4-C , 24-H ) :  -0.1698 B(  4-C , 25-H ) :   1.1509
B(  5-C ,  6-S ) :   0.9508 B(  5-C , 24-H ) :   1.1509 B(  5-C , 25-H ) :  -0.1696
B(  7-S ,  8-C ) :   0.9360 B(  8-C ,  9-C ) :   1.6409 B(  8-C , 26-H ) :  -0.1634
B(  8-C , 27-H ) :   1.1571 B(  9-C , 10-S ) :   0.9702 B(  9-C , 26-H ) :   1.1276
B(  9-C , 27-H ) :  -0.1602 B( 11-S , 12-C ) :   0.7356 B( 11-S , 14-H ) :   0.1463
B( 11-S , 16-C ) :   0.8011 B( 12-C , 13-H ) :   1.0060 B( 12-C , 14-H ) :   0.9970
B( 12-C , 15-H ) :   0.9744 B( 16-C , 17-H ) :   1.0045 B( 16-C , 18-H ) :   1.0209
B( 16-C , 19-H ) :   1.0105 B( 20-C , 21-H ) :   1.0069 B( 20-C , 22-H ) :   1.0100
B( 20-C , 23-H ) :   1.0137

MP2 TOTAL ENERGY:    -2483.551335256 Eh
Dispersion correction           -0.048154560
FINAL SINGLE POINT ENERGY     -2483.599489815991

DIPOLE MOMENT
-------------
                                X             Y             Z
Electronic contribution:     27.30897      -2.59400      -3.81903
Nuclear contribution   :    -30.46451       1.96400       4.17914
                        -----------------------------------------
Total Dipole Moment    :     -3.15554      -0.63000       0.36011
                        -----------------------------------------
Magnitude (a.u.)       :      3.23790
Magnitude (Debye)      :      8.23009

Rotational constants in cm-1:     0.012781     0.009890     0.008747
Rotational constants in MHz :   383.176431   296.486696   262.216571

                             ****ORCA TERMINATED NORMALLY****
TOTAL RUN TIME: 0 days 0 hours 2 minutes 6 seconds 765 msec
