                         Program Version 4.2.0 -  RELEASE  -
|  1> #
|  2> # TMB06_C1 ri-B2PLYP-D3BJ/Def2-TZVPPD
|  3> #
|  4> ! rijk ri-b2plyp d3bj def2-tzvppd def2/jk def2-tzvppd/c grid4 nofinalgrid
|  5>
|  6> *xyz -2 1
|  7> C       -4.922177    0.231539    2.107663
|  8> C       -4.446966   -0.260950    0.727306
|  9> O       -4.786048   -1.445661    0.381045
| 10> O       -3.774664    0.534657    0.034272
| 11> C        2.853834    2.539483    0.111094
| 12> S        1.699014    2.002949   -1.213407
| 13> C        2.621388   -0.654255    2.558361
| 14> S        1.079319    0.109893    2.243750
| 15> C        3.475179   -0.966107    1.545638
| 16> S        3.017258   -0.732048   -0.112289
| 17> C       -0.719852   -2.060810   -2.434513
| 18> S        0.476784   -0.759924   -2.482057
| 19> C       -1.165423   -2.576996   -1.263023
| 20> S       -0.426778   -2.115489    0.280596
| 21> W        0.581769    0.074169   -0.056710
| 22> O       -3.686516    3.100880   -0.970074
| 23> C       -0.958024    1.126222    0.768552
| 24> C       -1.050846    1.201510   -0.527136
| 25> H       -4.399031   -0.338057    2.886550
| 26> H       -4.651123    1.285347    2.215183
| 27> H        2.286624    2.922259    0.966567
| 28> H        3.439558    1.684807    0.443645
| 29> H       -3.719098    2.271105   -0.448699
| 30> H       -4.432659    3.004669   -1.574445
| 31> H       -1.423366    1.443209    1.691261
| 32> H       -1.628538    1.662411   -1.315772
| 33> H       -1.080680   -2.444086   -3.386693
| 34> H       -2.006521   -3.265324   -1.212989
| 35> H        3.558044    3.288012   -0.266819
| 36> H        2.852091   -0.869929    3.599516
| 37> H        4.480661   -1.317935    1.766923
| 38> H       -6.001258    0.102048    2.241238
| 39> *
| 40>
| 41> %maxcore 5000
| 42>
| 43> %pal
| 44> nprocs = 24
| 45> end
| 46>
| 47>
| 48>                          ****END OF INPUT****

CARTESIAN COORDINATES (ANGSTROEM)
---------------------------------
  C     -4.922177    0.231539    2.107663
  C     -4.446966   -0.260950    0.727306
  O     -4.786048   -1.445661    0.381045
  O     -3.774664    0.534657    0.034272
  C      2.853834    2.539483    0.111094
  S      1.699014    2.002949   -1.213407
  C      2.621388   -0.654255    2.558361
  S      1.079319    0.109893    2.243750
  C      3.475179   -0.966107    1.545638
  S      3.017258   -0.732048   -0.112289
  C     -0.719852   -2.060810   -2.434513
  S      0.476784   -0.759924   -2.482057
  C     -1.165423   -2.576996   -1.263023
  S     -0.426778   -2.115489    0.280596
  W      0.581769    0.074169   -0.056710
  O     -3.686516    3.100880   -0.970074
  C     -0.958024    1.126222    0.768552
  C     -1.050846    1.201510   -0.527136
  H     -4.399031   -0.338057    2.886550
  H     -4.651123    1.285347    2.215183
  H      2.286624    2.922259    0.966567
  H      3.439558    1.684807    0.443645
  H     -3.719098    2.271105   -0.448699
  H     -4.432659    3.004669   -1.574445
  H     -1.423366    1.443209    1.691261
  H     -1.628538    1.662411   -1.315772
  H     -1.080680   -2.444086   -3.386693
  H     -2.006521   -3.265324   -1.212989
  H      3.558044    3.288012   -0.266819
  H      2.852091   -0.869929    3.599516
  H      4.480661   -1.317935    1.766923
  H     -6.001258    0.102048    2.241238

 Total Charge           Charge          ....   -2
 Multiplicity           Mult            ....    1
 Number of Electrons    NEL             ....  188
 Basis Dimension        Dim             .... 1005

ORBITAL ENERGIES
----------------

  NO   OCC          E(Eh)            E(eV)
   0   2.0000     -89.942885     -2447.4703
   1   2.0000     -89.913441     -2446.6691
   2   2.0000     -89.903403     -2446.3960
   3   2.0000     -89.894488     -2446.1534
   4   2.0000     -89.891290     -2446.0664
   5   2.0000     -19.498033      -530.5685
   6   2.0000     -19.419980      -528.4445
   7   2.0000     -19.406307      -528.0725
   8   2.0000     -10.464803      -284.7618
   9   2.0000     -10.447823      -284.2997
  10   2.0000     -10.434993      -283.9506
  11   2.0000     -10.419324      -283.5242
  12   2.0000     -10.413916      -283.3771
  13   2.0000     -10.409217      -283.2492
  14   2.0000     -10.404969      -283.1336
  15   2.0000     -10.403159      -283.0844
  16   2.0000     -10.386706      -282.6366
  17   2.0000      -8.147738      -221.7112
  18   2.0000      -8.119338      -220.9384
  19   2.0000      -8.108966      -220.6562
  20   2.0000      -8.100083      -220.4145
  21   2.0000      -8.096445      -220.3155
  22   2.0000      -5.993763      -163.0986
  23   2.0000      -5.991345      -163.0328
  24   2.0000      -5.990015      -162.9966
  25   2.0000      -5.965674      -162.3342
  26   2.0000      -5.962382      -162.2447
  27   2.0000      -5.961675      -162.2254
  28   2.0000      -5.955255      -162.0507
  29   2.0000      -5.952443      -161.9742
  30   2.0000      -5.951262      -161.9421
  31   2.0000      -5.946779      -161.8201
  32   2.0000      -5.943762      -161.7380
  33   2.0000      -5.943011      -161.7176
  34   2.0000      -5.941593      -161.6790
  35   2.0000      -5.939940      -161.6340
  36   2.0000      -5.938551      -161.5962
  37   2.0000      -2.993479       -81.4567
  38   2.0000      -1.568682       -42.6860
  39   2.0000      -1.567257       -42.6472
  40   2.0000      -1.561409       -42.4881
  41   2.0000      -0.922264       -25.0961
  42   2.0000      -0.913537       -24.8586
  43   2.0000      -0.816111       -22.2075
  44   2.0000      -0.728457       -19.8223
  45   2.0000      -0.690716       -18.7953
  46   2.0000      -0.661791       -18.0082
  47   2.0000      -0.642125       -17.4731
  48   2.0000      -0.617281       -16.7971
  49   2.0000      -0.599508       -16.3134
  50   2.0000      -0.580204       -15.7882
  51   2.0000      -0.540697       -14.7131
  52   2.0000      -0.509566       -13.8660
  53   2.0000      -0.482348       -13.1254
  54   2.0000      -0.425226       -11.5710
  55   2.0000      -0.404720       -11.0130
  56   2.0000      -0.382651       -10.4125
  57   2.0000      -0.377730       -10.2785
  58   2.0000      -0.348089        -9.4720
  59   2.0000      -0.345384        -9.3984
  60   2.0000      -0.336574        -9.1587
  61   2.0000      -0.314246        -8.5511
  62   2.0000      -0.287416        -7.8210
  63   2.0000      -0.279145        -7.5959
  64   2.0000      -0.276039        -7.5114
  65   2.0000      -0.273378        -7.4390
  66   2.0000      -0.270456        -7.3595
  67   2.0000      -0.268560        -7.3079
  68   2.0000      -0.240782        -6.5520
  69   2.0000      -0.227800        -6.1987
  70   2.0000      -0.211961        -5.7677
  71   2.0000      -0.205454        -5.5907
  72   2.0000      -0.195748        -5.3266
  73   2.0000      -0.188489        -5.1291
  74   2.0000      -0.182000        -4.9525
  75   2.0000      -0.179270        -4.8782
  76   2.0000      -0.170569        -4.6414
  77   2.0000      -0.169372        -4.6088
  78   2.0000      -0.160455        -4.3662
  79   2.0000      -0.144474        -3.9313
  80   2.0000      -0.141323        -3.8456
  81   2.0000      -0.127659        -3.4738
  82   2.0000      -0.111351        -3.0300
  83   2.0000      -0.105988        -2.8841
  84   2.0000      -0.091906        -2.5009
  85   2.0000      -0.076838        -2.0909
  86   2.0000      -0.073904        -2.0110
  87   2.0000      -0.067962        -1.8493
  88   2.0000      -0.059938        -1.6310
  89   2.0000      -0.052291        -1.4229
  90   2.0000      -0.049065        -1.3351
  91   2.0000      -0.035383        -0.9628
  92   2.0000      -0.029351        -0.7987
  93   2.0000       0.005343         0.1454
  94   0.0000       0.158658         4.3173
  95   0.0000       0.174902         4.7593
  96   0.0000       0.189299         5.1511
  97   0.0000       0.193090         5.2542
  98   0.0000       0.197523         5.3749

MULLIKEN ATOMIC CHARGES
-----------------------
   0 C :   -0.208309
   1 C :    0.570198
   2 O :   -0.790523
   3 O :   -0.705843
   4 C :    0.088834
   5 S :   -0.584877
   6 C :    0.219448
   7 S :   -0.436732
   8 C :    0.108567
   9 S :   -0.514481
  10 C :    0.177789
  11 S :   -0.541694
  12 C :    0.234065
  13 S :   -0.506899
  14 W :    0.516825
  15 O :   -0.527547
  16 C :    0.241519
  17 C :    0.322941
  18 H :    0.019446
  19 H :    0.080503
  20 H :    0.054737
  21 H :   -0.011131
  22 H :    0.399268
  23 H :    0.134523
  24 H :   -0.031425
  25 H :   -0.065959
  26 H :   -0.090153
  27 H :   -0.083119
  28 H :    0.050582
  29 H :   -0.074106
  30 H :   -0.085497
  31 H :    0.039048
Sum of atomic charges:   -2.0000000

LOEWDIN ATOMIC CHARGES
----------------------
   0 C :    0.164839
   1 C :   -0.654013
   2 O :   -0.138359
   3 O :   -0.088797
   4 C :   -0.327113
   5 S :    0.410934
   6 C :   -0.548135
   7 S :    0.616796
   8 C :   -0.583409
   9 S :    0.499289
  10 C :   -0.582541
  11 S :    0.433443
  12 C :   -0.542277
  13 S :    0.517451
  14 W :    0.178063
  15 O :    0.357849
  16 C :   -0.204451
  17 C :   -0.166149
  18 H :   -0.026323
  19 H :   -0.034139
  20 H :   -0.087502
  21 H :   -0.154579
  22 H :   -0.277340
  23 H :   -0.219429
  24 H :   -0.052720
  25 H :   -0.044297
  26 H :   -0.084571
  27 H :   -0.072174
  28 H :   -0.089744
  29 H :   -0.087978
  30 H :   -0.077204
  31 H :   -0.035418

  Mayer bond orders larger than 0.100000
B(  0-C ,  1-C ) :   0.8599 B(  0-C , 18-H ) :   1.0376 B(  0-C , 19-H ) :   1.0032
B(  0-C , 31-H ) :   1.0367 B(  1-C ,  2-O ) :   1.4920 B(  1-C ,  3-O ) :   1.5004
B(  4-C ,  5-S ) :   0.7735 B(  4-C ,  9-S ) :  -0.1391 B(  4-C , 20-H ) :   1.0226
B(  4-C , 21-H ) :   0.9435 B(  4-C , 28-H ) :   1.0175 B(  5-S , 14-W ) :   0.9704
B(  5-S , 16-C ) :  -0.1290 B(  6-C ,  7-S ) :   0.9125 B(  6-C ,  8-C ) :   1.4364
B(  6-C , 29-H ) :   1.1411 B(  6-C , 30-H ) :  -0.1540 B(  7-S , 14-W ) :   1.1493
B(  8-C ,  9-S ) :   1.0641 B(  8-C , 29-H ) :  -0.1321 B(  8-C , 30-H ) :   1.1575
B(  9-S , 14-W ) :   0.8183 B(  9-S , 21-H ) :   0.1028 B( 10-C , 11-S ) :   1.0330
B( 10-C , 12-C ) :   1.4559 B( 10-C , 26-H ) :   1.1390 B( 10-C , 27-H ) :  -0.1635
B( 11-S , 14-W ) :   0.8435 B( 11-S , 17-C ) :  -0.1076 B( 12-C , 13-S ) :   0.9396
B( 12-C , 26-H ) :  -0.1307 B( 12-C , 27-H ) :   1.1636 B( 13-S , 14-W ) :   1.0732
B( 14-W , 16-C ) :   1.0468 B( 14-W , 17-C ) :   1.0816 B( 15-O , 22-H ) :   0.7861
B( 15-O , 23-H ) :   1.0523 B( 16-C , 17-C ) :   1.4906 B( 16-C , 24-H ) :   1.0018
B( 16-C , 25-H ) :  -0.1071 B( 17-C , 25-H ) :   1.0223

MP2 TOTAL ENERGY:    -2634.398069800 Eh
Dispersion correction           -0.050853628
FINAL SINGLE POINT ENERGY     -2634.448923427440

DIPOLE MOMENT
-------------
                                X             Y             Z
Electronic contribution:     92.84929       4.43284     -11.73524
Nuclear contribution   :    -89.05733      -3.76163      13.00017
                        -----------------------------------------
Total Dipole Moment    :      3.79196       0.67120       1.26492
                        -----------------------------------------
Magnitude (a.u.)       :      4.05333
Magnitude (Debye)      :     10.30275

Rotational constants in cm-1:     0.010716     0.005373     0.005252
Rotational constants in MHz :   321.254043   161.065395   157.440366

                             ****ORCA TERMINATED NORMALLY****
TOTAL RUN TIME: 0 days 0 hours 2 minutes 58 seconds 610 msec
