                         Program Version 4.2.0 -  RELEASE  -
|  1> #
|  2> # TMB10_C1 ri-B2PLYP-D3BJ/Def2-TZVPPD
|  3> #
|  4> ! rijk ri-b2plyp d3bj def2-tzvppd def2/jk def2-tzvppd/c grid4 nofinalgrid
|  5>
|  6> *xyz 0 1
|  7> Mo       0.133298    0.019814    0.066207
|  8> C       -1.075332   -1.355629   -0.909336
|  9> C       -2.072844    2.216315    0.675821
| 10> H       -2.495915    2.026095    1.680930
| 11> H       -2.910608    2.260759   -0.044542
| 12> H       -1.592380    3.211696    0.695601
| 13> C        3.010907   -1.316541   -0.054396
| 14> C        1.366704    2.705574   -0.540684
| 15> N       -1.143030    1.200231    0.316847
| 16> O        1.491405    1.304940   -0.439122
| 17> O        1.615447   -1.247555   -0.063202
| 18> H        3.367194   -2.025819   -0.825669
| 19> H        3.385726   -1.672276    0.926079
| 20> H        3.451946   -0.322838   -0.260301
| 21> H        2.294131    3.111318   -0.982908
| 22> H        1.229038    3.178184    0.450904
| 23> H        0.520365    2.998986   -1.190253
| 24> C       -0.462062   -1.067727    1.747714
| 25> C       -1.245054   -1.851214    0.615257
| 26> H        0.321659   -1.674412    2.211474
| 27> H       -1.131198   -0.604236    2.478956
| 28> H       -0.901967   -2.892720    0.638908
| 29> H       -2.316994   -1.775934    0.836451
| 30> C       -2.372818   -1.072037   -1.638655
| 31> H       -2.166926   -0.639290   -2.630957
| 32> H       -2.958163   -1.996472   -1.801781
| 33> H       -3.005382   -0.361002   -1.085358
| 34> H       -0.439666   -2.067375   -1.451890
| 35> *
| 36>
| 37> %maxcore 5000
| 38>
| 39> %pal
| 40> nprocs = 24
| 41> end
| 42>
| 43>
| 44>                          ****END OF INPUT****

CARTESIAN COORDINATES (ANGSTROEM)
---------------------------------
  Mo     0.133298    0.019814    0.066207
  C     -1.075332   -1.355629   -0.909336
  C     -2.072844    2.216315    0.675821
  H     -2.495915    2.026095    1.680930
  H     -2.910608    2.260759   -0.044542
  H     -1.592380    3.211696    0.695601
  C      3.010907   -1.316541   -0.054396
  C      1.366704    2.705574   -0.540684
  N     -1.143030    1.200231    0.316847
  O      1.491405    1.304940   -0.439122
  O      1.615447   -1.247555   -0.063202
  H      3.367194   -2.025819   -0.825669
  H      3.385726   -1.672276    0.926079
  H      3.451946   -0.322838   -0.260301
  H      2.294131    3.111318   -0.982908
  H      1.229038    3.178184    0.450904
  H      0.520365    2.998986   -1.190253
  C     -0.462062   -1.067727    1.747714
  C     -1.245054   -1.851214    0.615257
  H      0.321659   -1.674412    2.211474
  H     -1.131198   -0.604236    2.478956
  H     -0.901967   -2.892720    0.638908
  H     -2.316994   -1.775934    0.836451
  C     -2.372818   -1.072037   -1.638655
  H     -2.166926   -0.639290   -2.630957
  H     -2.958163   -1.996472   -1.801781
  H     -3.005382   -0.361002   -1.085358
  H     -0.439666   -2.067375   -1.451890

 Total Charge           Charge          ....    0
 Multiplicity           Mult            ....    1
 Number of Electrons    NEL             ....   96
 Basis Dimension        Dim             ....  721

ORBITAL ENERGIES
----------------

  NO   OCC          E(Eh)            E(eV)
   0   2.0000     -19.693253      -535.8806
   1   2.0000     -19.674767      -535.3776
   2   2.0000     -14.840698      -403.8359
   3   2.0000     -10.651884      -289.8525
   4   2.0000     -10.645997      -289.6923
   5   2.0000     -10.643879      -289.6347
   6   2.0000     -10.632981      -289.3381
   7   2.0000     -10.631096      -289.2868
   8   2.0000     -10.622053      -289.0408
   9   2.0000     -10.613404      -288.8054
  10   2.0000      -2.835939       -77.1698
  11   2.0000      -1.776015       -48.3278
  12   2.0000      -1.770521       -48.1783
  13   2.0000      -1.756437       -47.7951
  14   2.0000      -1.097644       -29.8684
  15   2.0000      -1.085690       -29.5431
  16   2.0000      -0.962825       -26.1998
  17   2.0000      -0.909603       -24.7515
  18   2.0000      -0.835982       -22.7482
  19   2.0000      -0.749835       -20.4041
  20   2.0000      -0.745432       -20.2842
  21   2.0000      -0.730762       -19.8850
  22   2.0000      -0.718335       -19.5469
  23   2.0000      -0.648343       -17.6423
  24   2.0000      -0.556323       -15.1383
  25   2.0000      -0.536238       -14.5918
  26   2.0000      -0.528277       -14.3751
  27   2.0000      -0.515324       -14.0227
  28   2.0000      -0.510866       -13.9014
  29   2.0000      -0.502268       -13.6674
  30   2.0000      -0.500633       -13.6229
  31   2.0000      -0.491687       -13.3795
  32   2.0000      -0.487664       -13.2700
  33   2.0000      -0.480513       -13.0754
  34   2.0000      -0.475742       -12.9456
  35   2.0000      -0.461635       -12.5617
  36   2.0000      -0.451027       -12.2731
  37   2.0000      -0.450430       -12.2568
  38   2.0000      -0.412832       -11.2337
  39   2.0000      -0.404212       -10.9992
  40   2.0000      -0.372039       -10.1237
  41   2.0000      -0.355591        -9.6761
  42   2.0000      -0.346738        -9.4352
  43   2.0000      -0.325507        -8.8575
  44   2.0000      -0.319694        -8.6993
  45   2.0000      -0.303901        -8.2696
  46   2.0000      -0.294568        -8.0156
  47   2.0000      -0.286781        -7.8037
  48   0.0000      -0.003395        -0.0924
  49   0.0000       0.009559         0.2601
  50   0.0000       0.016281         0.4430
  51   0.0000       0.023362         0.6357
  52   0.0000       0.035491         0.9658

MULLIKEN ATOMIC CHARGES
-----------------------
   0 Mo:    0.652560
   1 C :    0.760584
   2 C :   -0.272530
   3 H :    0.116579
   4 H :    0.116826
   5 H :    0.130422
   6 C :   -0.212627
   7 C :   -0.056776
   8 N :   -0.636021
   9 O :   -0.580631
  10 O :   -0.467366
  11 H :    0.059985
  12 H :    0.074467
  13 H :    0.100092
  14 H :    0.025052
  15 H :    0.049709
  16 H :    0.053741
  17 C :    0.072292
  18 C :   -0.100174
  19 H :    0.077264
  20 H :    0.035403
  21 H :    0.155911
  22 H :    0.093933
  23 C :   -0.670617
  24 H :    0.065807
  25 H :    0.114745
  26 H :    0.048584
  27 H :    0.192787
Sum of atomic charges:   -0.0000000

LOEWDIN ATOMIC CHARGES
----------------------
   0 Mo:    1.266869
   1 C :   -0.208429
   2 C :    0.024242
   3 H :   -0.006606
   4 H :   -0.009696
   5 H :   -0.011742
   6 C :    0.000921
   7 C :   -0.014772
   8 N :   -0.117134
   9 O :   -0.354906
  10 O :   -0.361546
  11 H :   -0.006421
  12 H :   -0.005910
  13 H :   -0.015328
  14 H :   -0.005291
  15 H :   -0.010727
  16 H :   -0.014689
  17 C :   -0.008952
  18 C :   -0.066495
  19 H :   -0.049738
  20 H :   -0.053787
  21 H :    0.011858
  22 H :    0.007623
  23 C :    0.081114
  24 H :   -0.013142
  25 H :   -0.008954
  26 H :   -0.025817
  27 H :   -0.022546

  Mayer bond orders larger than 0.100000
B(  0-Mo,  1-C ) :   0.9358 B(  0-Mo,  2-C ) :   0.1261 B(  0-Mo,  8-N ) :   1.4068
B(  0-Mo,  9-O ) :   0.8629 B(  0-Mo, 10-O ) :   0.8726 B(  0-Mo, 17-C ) :   1.0028
B(  0-Mo, 18-C ) :   0.3319 B(  0-Mo, 19-H ) :   0.1060 B(  1-C , 10-O ) :  -0.1822
B(  1-C , 18-C ) :   0.7932 B(  1-C , 23-C ) :   0.7457 B(  1-C , 27-H ) :   0.9551
B(  2-C ,  3-H ) :   1.0093 B(  2-C ,  4-H ) :   1.0002 B(  2-C ,  5-H ) :   0.9980
B(  2-C ,  8-N ) :   0.5450 B(  6-C , 10-O ) :   0.8952 B(  6-C , 11-H ) :   1.0359
B(  6-C , 12-H ) :   1.0210 B(  6-C , 13-H ) :   1.0051 B(  7-C ,  9-O ) :   0.8784
B(  7-C , 14-H ) :   1.0575 B(  7-C , 15-H ) :   1.0091 B(  7-C , 16-H ) :   0.9911
B( 10-O , 17-C ) :  -0.1960 B( 17-C , 18-C ) :   0.9133 B( 17-C , 19-H ) :   0.9983
B( 17-C , 20-H ) :   1.0359 B( 18-C , 21-H ) :   0.9911 B( 18-C , 22-H ) :   1.0668
B( 23-C , 24-H ) :   1.0368 B( 23-C , 25-H ) :   1.0439 B( 23-C , 26-H ) :   1.0247

MP2 TOTAL ENERGY:     -550.147916961 Eh
Dispersion correction           -0.026552972
FINAL SINGLE POINT ENERGY      -550.174469932791

DIPOLE MOMENT
-------------
                                X             Y             Z
Electronic contribution:     10.96952       0.81895       4.65134
Nuclear contribution   :    -12.16779      -0.65832      -4.35638
                        -----------------------------------------
Total Dipole Moment    :     -1.19827       0.16063       0.29496
                        -----------------------------------------
Magnitude (a.u.)       :      1.24445
Magnitude (Debye)      :      3.16315

Rotational constants in cm-1:     0.031161     0.027931     0.019091
Rotational constants in MHz :   934.171856   837.337056   572.342467

                             ****ORCA TERMINATED NORMALLY****
TOTAL RUN TIME: 0 days 0 hours 0 minutes 53 seconds 883 msec
