                         Program Version 4.2.0 -  RELEASE  -
|  1> #
|  2> # TMB20_I1 ri-B2PLYP-D3BJ/Def2-TZVPPD
|  3> #
|  4> ! rijk ri-b2plyp d3bj def2-tzvppd def2/jk def2-tzvppd/c grid4 nofinalgrid
|  5>
|  6> *xyz 0 1
|  7> Re       0.721260    0.301703   -0.012347
|  8> C        1.851141    0.452958   -1.678261
|  9> C        1.971728    0.634914    1.425372
| 10> C        0.763580    2.214165   -0.101283
| 11> Br       1.710512   -2.064741    0.019177
| 12> O        0.816608    3.358474   -0.166463
| 13> O        2.493283    0.513036   -2.612271
| 14> O        2.652573    0.808904    2.320449
| 15> C       -1.780395   -0.133590    1.665167
| 16> C       -0.470905   -0.371203    1.638632
| 17> C       -2.365069    0.652857    0.526821
| 18> C       -3.493010   -0.159458   -0.075600
| 19> O       -3.300943   -1.161632   -0.733339
| 20> O       -4.693453    0.297769    0.229376
| 21> C       -1.280010    0.876972   -0.512116
| 22> O       -0.953000   -0.240509   -1.297416
| 23> H       -1.566319   -0.977006   -1.049921
| 24> C       -5.797043   -0.483161   -0.244906
| 25> H       -6.688437    0.024549    0.111717
| 26> H       -5.787691   -0.527184   -1.333247
| 27> H       -5.742358   -1.494851    0.155119
| 28> H       -0.050439   -0.962173    2.449658
| 29> H       -2.758296    1.619346    0.851818
| 30> H       -2.454065   -0.501260    2.435709
| 31> H       -1.435420    1.741704   -1.151672
| 32> *
| 33>
| 34> %maxcore 5000
| 35>
| 36> %pal
| 37> nprocs = 24
| 38> end
| 39>
| 40>
| 41>                          ****END OF INPUT****

CARTESIAN COORDINATES (ANGSTROEM)
---------------------------------
  Re     0.721260    0.301703   -0.012347
  C      1.851141    0.452958   -1.678261
  C      1.971728    0.634914    1.425372
  C      0.763580    2.214165   -0.101283
  Br     1.710512   -2.064741    0.019177
  O      0.816608    3.358474   -0.166463
  O      2.493283    0.513036   -2.612271
  O      2.652573    0.808904    2.320449
  C     -1.780395   -0.133590    1.665167
  C     -0.470905   -0.371203    1.638632
  C     -2.365069    0.652857    0.526821
  C     -3.493010   -0.159458   -0.075600
  O     -3.300943   -1.161632   -0.733339
  O     -4.693453    0.297769    0.229376
  C     -1.280010    0.876972   -0.512116
  O     -0.953000   -0.240509   -1.297416
  H     -1.566319   -0.977006   -1.049921
  C     -5.797043   -0.483161   -0.244906
  H     -6.688437    0.024549    0.111717
  H     -5.787691   -0.527184   -1.333247
  H     -5.742358   -1.494851    0.155119
  H     -0.050439   -0.962173    2.449658
  H     -2.758296    1.619346    0.851818
  H     -2.454065   -0.501260    2.435709
  H     -1.435420    1.741704   -1.151672

 Total Charge           Charge          ....    0
 Multiplicity           Mult            ....    1
 Number of Electrons    NEL             ....  160
 Basis Dimension        Dim             ....  825

ORBITAL ENERGIES
----------------

  NO   OCC          E(Eh)            E(eV)
   0   2.0000    -485.809611    -13219.5516
   1   2.0000     -63.560781     -1729.5768
   2   2.0000     -57.183897     -1556.0529
   3   2.0000     -57.182666     -1556.0194
   4   2.0000     -57.182404     -1556.0123
   5   2.0000     -19.836232      -539.7713
   6   2.0000     -19.829090      -539.5770
   7   2.0000     -19.818490      -539.2885
   8   2.0000     -19.813960      -539.1653
   9   2.0000     -19.812158      -539.1162
  10   2.0000     -19.754036      -537.5347
  11   2.0000     -10.792503      -293.6789
  12   2.0000     -10.771099      -293.0965
  13   2.0000     -10.770820      -293.0889
  14   2.0000     -10.769166      -293.0439
  15   2.0000     -10.727906      -291.9212
  16   2.0000     -10.695721      -291.0454
  17   2.0000     -10.667345      -290.2732
  18   2.0000     -10.621298      -289.0202
  19   2.0000     -10.603686      -288.5410
  20   2.0000      -9.121054      -248.1965
  21   2.0000      -6.857358      -186.5982
  22   2.0000      -6.852880      -186.4763
  23   2.0000      -6.852012      -186.4527
  24   2.0000      -3.450665       -93.8974
  25   2.0000      -2.817560       -76.6697
  26   2.0000      -2.816272       -76.6347
  27   2.0000      -2.815492       -76.6134
  28   2.0000      -2.811258       -76.4982
  29   2.0000      -2.811228       -76.4974
  30   2.0000      -1.948010       -53.0080
  31   2.0000      -1.943903       -52.8963
  32   2.0000      -1.933780       -52.6208
  33   2.0000      -1.317893       -35.8617
  34   2.0000      -1.311404       -35.6851
  35   2.0000      -1.303353       -35.4660
  36   2.0000      -1.300783       -35.3961
  37   2.0000      -1.255007       -34.1505
  38   2.0000      -1.203147       -32.7393
  39   2.0000      -0.967677       -26.3318
  40   2.0000      -0.874987       -23.8096
  41   2.0000      -0.840028       -22.8583
  42   2.0000      -0.823925       -22.4201
  43   2.0000      -0.785514       -21.3749
  44   2.0000      -0.712087       -19.3769
  45   2.0000      -0.700801       -19.0698
  46   2.0000      -0.688943       -18.7471
  47   2.0000      -0.682001       -18.5582
  48   2.0000      -0.667189       -18.1551
  49   2.0000      -0.635660       -17.2972
  50   2.0000      -0.624582       -16.9958
  51   2.0000      -0.617015       -16.7898
  52   2.0000      -0.599233       -16.3060
  53   2.0000      -0.598534       -16.2869
  54   2.0000      -0.588891       -16.0245
  55   2.0000      -0.580292       -15.7905
  56   2.0000      -0.565901       -15.3990
  57   2.0000      -0.565113       -15.3775
  58   2.0000      -0.561348       -15.2751
  59   2.0000      -0.557502       -15.1704
  60   2.0000      -0.553709       -15.0672
  61   2.0000      -0.539877       -14.6908
  62   2.0000      -0.536666       -14.6034
  63   2.0000      -0.532513       -14.4904
  64   2.0000      -0.517223       -14.0744
  65   2.0000      -0.503047       -13.6886
  66   2.0000      -0.498141       -13.5551
  67   2.0000      -0.469484       -12.7753
  68   2.0000      -0.453280       -12.3344
  69   2.0000      -0.447608       -12.1800
  70   2.0000      -0.413279       -11.2459
  71   2.0000      -0.406484       -11.0610
  72   2.0000      -0.382846       -10.4178
  73   2.0000      -0.365326        -9.9410
  74   2.0000      -0.357262        -9.7216
  75   2.0000      -0.339853        -9.2479
  76   2.0000      -0.324315        -8.8250
  77   2.0000      -0.306379        -8.3370
  78   2.0000      -0.292142        -7.9496
  79   2.0000      -0.278807        -7.5867
  80   0.0000      -0.041007        -1.1159
  81   0.0000      -0.003009        -0.0819
  82   0.0000       0.008874         0.2415
  83   0.0000       0.022972         0.6251
  84   0.0000       0.030413         0.8276

MULLIKEN ATOMIC CHARGES
-----------------------
   0 Re:    0.647603
   1 C :    0.410582
   2 C :    0.668257
   3 C :   -0.000797
   4 Br:   -0.630433
   5 O :   -0.386066
   6 O :   -0.297444
   7 O :   -0.331967
   8 C :   -0.985557
   9 C :    0.120467
  10 C :    1.627648
  11 C :    0.342911
  12 O :   -0.638793
  13 O :   -0.312043
  14 C :   -0.160780
  15 O :   -0.453249
  16 H :    0.260107
  17 C :   -0.161154
  18 H :    0.079795
  19 H :    0.125116
  20 H :    0.135359
  21 H :   -0.098594
  22 H :    0.001656
  23 H :   -0.098910
  24 H :    0.136286
Sum of atomic charges:    0.0000000

LOEWDIN ATOMIC CHARGES
----------------------
   0 Re:    0.615683
   1 C :   -0.202877
   2 C :   -0.277580
   3 C :   -0.249450
   4 Br:    0.139879
   5 O :    0.130929
   6 O :    0.143447
   7 O :    0.152783
   8 C :   -0.041057
   9 C :   -0.095591
  10 C :   -0.109302
  11 C :   -0.403854
  12 O :    0.117720
  13 O :    0.028180
  14 C :   -0.145136
  15 O :    0.115616
  16 H :   -0.165203
  17 C :    0.187374
  18 H :    0.012276
  19 H :    0.014570
  20 H :    0.016052
  21 H :   -0.065430
  22 H :    0.053504
  23 H :    0.004832
  24 H :    0.022634

  Mayer bond orders larger than 0.100000
B(  0-Re,  1-C ) :   0.8142 B(  0-Re,  2-C ) :   1.0892 B(  0-Re,  3-C ) :   1.2567
B(  0-Re,  4-Br) :   0.3834 B(  0-Re,  9-C ) :   0.6632 B(  0-Re, 14-C ) :   0.6594
B(  0-Re, 15-O ) :   0.4014 B(  1-C ,  6-O ) :   2.2027 B(  2-C ,  7-O ) :   2.1485
B(  3-C ,  5-O ) :   2.0340 B(  3-C , 14-C ) :   0.2184 B(  8-C ,  9-C ) :   1.8681
B(  8-C , 11-C ) :   0.4543 B(  8-C , 14-C ) :   0.3679 B(  8-C , 23-H ) :   1.2460
B(  9-C , 10-C ) :  -0.1280 B(  9-C , 21-H ) :   1.0916 B(  9-C , 23-H ) :  -0.1124
B( 10-C , 11-C ) :   0.1585 B( 10-C , 12-O ) :  -0.1250 B( 10-C , 14-C ) :   0.5838
B( 10-C , 22-H ) :   1.0401 B( 10-C , 23-H ) :  -0.2447 B( 11-C , 12-O ) :   1.4701
B( 11-C , 13-O ) :   0.8543 B( 11-C , 14-C ) :   0.4015 B( 12-O , 14-C ) :   0.1179
B( 13-O , 17-C ) :   0.7964 B( 14-C , 15-O ) :   0.6058 B( 14-C , 24-H ) :   0.9687
B( 15-O , 16-H ) :   0.8830 B( 17-C , 18-H ) :   1.0492 B( 17-C , 19-H ) :   0.9869
B( 17-C , 20-H ) :   0.9802

MP2 TOTAL ENERGY:    -3450.952826131 Eh
Dispersion correction           -0.032915778
FINAL SINGLE POINT ENERGY     -3450.985741909632

DIPOLE MOMENT
-------------
                                X             Y             Z
Electronic contribution:    123.10372      30.02504      -3.26376
Nuclear contribution   :   -125.53088     -28.89018       3.09124
                        -----------------------------------------
Total Dipole Moment    :     -2.42716       1.13487      -0.17251
                        -----------------------------------------
Magnitude (a.u.)       :      2.68492
Magnitude (Debye)      :      6.82452

Rotational constants in cm-1:     0.016025     0.007116     0.006337
Rotational constants in MHz :   480.407323   213.341783   189.987107

                             ****ORCA TERMINATED NORMALLY****
TOTAL RUN TIME: 0 days 0 hours 1 minutes 39 seconds 23 msec
