                         Program Version 4.2.0 -  RELEASE  -
|  1> #
|  2> # TMB29_C2 ri-B2PLYP-D3BJ/Def2-TZVPPD
|  3> #
|  4> ! rijk ri-b2plyp d3bj def2-tzvppd def2/jk def2-tzvppd/c grid4 nofinalgrid
|  5>
|  6> *xyz 1 1
|  7> C        0.315194   -1.265840   -0.205097
|  8> C        1.442343   -0.626838    0.044790
|  9> C        0.309905   -2.700146   -0.639207
| 10> H        1.304587   -3.137496   -0.733589
| 11> H       -0.263876   -3.299051    0.071387
| 12> H       -0.202915   -2.796953   -1.598442
| 13> C        1.798588    0.767906    0.516696
| 14> O        3.282693    0.709723    0.495405
| 15> C        3.659486   -0.471899    0.173285
| 16> O        2.736849   -1.295199   -0.102354
| 17> C        1.344136    1.838147   -0.506262
| 18> O        0.287215    2.374668   -0.320274
| 19> C        2.219880    2.103298   -1.689301
| 20> H        2.470349    1.173144   -2.206730
| 21> H        1.702341    2.771806   -2.372494
| 22> H        3.157528    2.564787   -1.369834
| 23> C        5.078697   -0.839761    0.144564
| 24> H        5.213504   -1.795905   -0.353509
| 25> H        5.652959   -0.054437   -0.347617
| 26> H        5.438400   -0.910855    1.175413
| 27> C        1.364152    1.101522    1.920814
| 28> H        1.754676    2.072052    2.227431
| 29> H        0.275994    1.149047    1.931402
| 30> H        1.690154    0.330993    2.618895
| 31> Au      -1.496985   -0.316099   -0.013075
| 32> P       -3.546234    0.682452    0.150815
| 33> H       -3.831804    1.712524   -0.762172
| 34> H       -4.687337   -0.122280   -0.012331
| 35> H       -3.867595    1.325764    1.359005
| 36> *
| 37>
| 38> %maxcore 5000
| 39>
| 40> %pal
| 41> nprocs = 24
| 42> end
| 43>
| 44>
| 45>                          ****END OF INPUT****

CARTESIAN COORDINATES (ANGSTROEM)
---------------------------------
  C      0.315194   -1.265840   -0.205097
  C      1.442343   -0.626838    0.044790
  C      0.309905   -2.700146   -0.639207
  H      1.304587   -3.137496   -0.733589
  H     -0.263876   -3.299051    0.071387
  H     -0.202915   -2.796953   -1.598442
  C      1.798588    0.767906    0.516696
  O      3.282693    0.709723    0.495405
  C      3.659486   -0.471899    0.173285
  O      2.736849   -1.295199   -0.102354
  C      1.344136    1.838147   -0.506262
  O      0.287215    2.374668   -0.320274
  C      2.219880    2.103298   -1.689301
  H      2.470349    1.173144   -2.206730
  H      1.702341    2.771806   -2.372494
  H      3.157528    2.564787   -1.369834
  C      5.078697   -0.839761    0.144564
  H      5.213504   -1.795905   -0.353509
  H      5.652959   -0.054437   -0.347617
  H      5.438400   -0.910855    1.175413
  C      1.364152    1.101522    1.920814
  H      1.754676    2.072052    2.227431
  H      0.275994    1.149047    1.931402
  H      1.690154    0.330993    2.618895
  Au    -1.496985   -0.316099   -0.013075
  P     -3.546234    0.682452    0.150815
  H     -3.831804    1.712524   -0.762172
  H     -4.687337   -0.122280   -0.012331
  H     -3.867595    1.325764    1.359005

 Total Charge           Charge          ....    1
 Multiplicity           Mult            ....    1
 Number of Electrons    NEL             ....  126
 Basis Dimension        Dim             ....  815

ORBITAL ENERGIES
----------------

  NO   OCC          E(Eh)            E(eV)
   0   2.0000     -78.424285     -2134.0333
   1   2.0000     -19.980096      -543.6860
   2   2.0000     -19.974886      -543.5443
   3   2.0000     -19.853825      -540.2501
   4   2.0000     -10.970576      -298.5245
   5   2.0000     -10.857916      -295.4589
   6   2.0000     -10.849761      -295.2370
   7   2.0000     -10.814303      -294.2721
   8   2.0000     -10.792780      -293.6865
   9   2.0000     -10.748630      -292.4851
  10   2.0000     -10.743375      -292.3421
  11   2.0000     -10.742387      -292.3152
  12   2.0000     -10.719216      -291.6847
  13   2.0000      -7.094781      -193.0588
  14   2.0000      -5.145912      -140.0274
  15   2.0000      -5.145885      -140.0267
  16   2.0000      -5.143936      -139.9736
  17   2.0000      -4.517065      -122.9156
  18   2.0000      -2.641129       -71.8688
  19   2.0000      -2.626624       -71.4741
  20   2.0000      -2.625967       -71.4562
  21   2.0000      -1.509248       -41.0687
  22   2.0000      -1.391620       -37.8679
  23   2.0000      -1.334337       -36.3092
  24   2.0000      -1.118277       -30.4299
  25   2.0000      -1.034607       -28.1531
  26   2.0000      -1.024277       -27.8720
  27   2.0000      -0.990499       -26.9529
  28   2.0000      -0.931327       -25.3427
  29   2.0000      -0.896937       -24.4069
  30   2.0000      -0.889899       -24.2154
  31   2.0000      -0.879646       -23.9364
  32   2.0000      -0.829450       -22.5705
  33   2.0000      -0.811019       -22.0689
  34   2.0000      -0.765800       -20.8385
  35   2.0000      -0.730093       -19.8668
  36   2.0000      -0.697104       -18.9692
  37   2.0000      -0.671290       -18.2667
  38   2.0000      -0.666332       -18.1318
  39   2.0000      -0.658033       -17.9060
  40   2.0000      -0.653751       -17.7895
  41   2.0000      -0.647510       -17.6196
  42   2.0000      -0.641020       -17.4431
  43   2.0000      -0.634809       -17.2740
  44   2.0000      -0.626693       -17.0532
  45   2.0000      -0.608159       -16.5489
  46   2.0000      -0.605671       -16.4811
  47   2.0000      -0.603545       -16.4233
  48   2.0000      -0.600512       -16.3408
  49   2.0000      -0.591517       -16.0960
  50   2.0000      -0.583121       -15.8675
  51   2.0000      -0.581394       -15.8205
  52   2.0000      -0.573255       -15.5991
  53   2.0000      -0.558837       -15.2067
  54   2.0000      -0.549933       -14.9644
  55   2.0000      -0.512612       -13.9489
  56   2.0000      -0.498818       -13.5735
  57   2.0000      -0.493448       -13.4274
  58   2.0000      -0.492334       -13.3971
  59   2.0000      -0.469207       -12.7678
  60   2.0000      -0.462856       -12.5949
  61   2.0000      -0.418611       -11.3910
  62   2.0000      -0.414639       -11.2829
  63   0.0000      -0.143804        -3.9131
  64   0.0000      -0.105849        -2.8803
  65   0.0000      -0.095531        -2.5995
  66   0.0000      -0.090081        -2.4512
  67   0.0000      -0.081564        -2.2195

MULLIKEN ATOMIC CHARGES
-----------------------
   0 C :    0.401644
   1 C :   -0.778065
   2 C :   -0.678886
   3 H :    0.045032
   4 H :    0.164956
   5 H :    0.159729
   6 C :    3.060355
   7 O :   -0.348244
   8 C :    0.873925
   9 O :   -0.390591
  10 C :    0.156918
  11 O :   -0.526772
  12 C :   -0.551818
  13 H :    0.092596
  14 H :    0.132402
  15 H :    0.128437
  16 C :   -0.743846
  17 H :    0.149438
  18 H :    0.146961
  19 H :    0.161154
  20 C :   -0.807092
  21 H :    0.092114
  22 H :    0.026015
  23 H :    0.146205
  24 Au:   -0.365647
  25 P :    0.049855
  26 H :    0.073675
  27 H :    0.061751
  28 H :    0.067800
Sum of atomic charges:    1.0000000

LOEWDIN ATOMIC CHARGES
----------------------
   0 C :   -0.251541
   1 C :   -0.175194
   2 C :    0.092724
   3 H :   -0.017201
   4 H :   -0.012012
   5 H :   -0.013284
   6 C :   -0.254870
   7 O :    0.145277
   8 C :   -0.272147
   9 O :    0.167259
  10 C :   -0.307798
  11 O :    0.078428
  12 C :    0.239784
  13 H :    0.009752
  14 H :    0.012780
  15 H :    0.012133
  16 C :    0.306098
  17 H :    0.025488
  18 H :    0.029851
  19 H :    0.036728
  20 C :    0.230177
  21 H :    0.020896
  22 H :   -0.011290
  23 H :    0.018414
  24 Au:    0.555708
  25 P :    0.840950
  26 H :   -0.166536
  27 H :   -0.171254
  28 H :   -0.169320

  Mayer bond orders larger than 0.100000
B(  0-C ,  1-C ) :   0.7912 B(  0-C ,  2-C ) :   0.8070 B(  0-C ,  9-O ) :   0.1594
B(  0-C , 10-C ) :   0.1053 B(  0-C , 24-Au) :   1.1139 B(  1-C ,  6-C ) :  -0.7375
B(  1-C ,  9-O ) :   0.6728 B(  1-C , 10-C ) :   0.7182 B(  1-C , 12-C ) :   0.1370
B(  1-C , 20-C ) :   0.2769 B(  1-C , 24-Au) :  -0.3654 B(  2-C ,  3-H ) :   1.0447
B(  2-C ,  4-H ) :   0.9903 B(  2-C ,  5-H ) :   0.9949 B(  2-C , 24-Au) :   0.1631
B(  6-C ,  7-O ) :   0.5291 B(  6-C ,  8-C ) :  -0.1757 B(  6-C , 10-C ) :  -0.2940
B(  6-C , 12-C ) :  -0.1253 B(  6-C , 20-C ) :   0.4793 B(  6-C , 23-H ) :  -0.1226
B(  7-O ,  8-C ) :   1.2720 B(  8-C ,  9-O ) :   1.1984 B(  8-C , 16-C ) :   1.0461
B(  9-O , 16-C ) :  -0.1139 B( 10-C , 11-O ) :   1.5802 B( 10-C , 12-C ) :   1.0463
B( 12-C , 13-H ) :   0.9749 B( 12-C , 14-H ) :   1.0540 B( 12-C , 15-H ) :   0.9866
B( 16-C , 17-H ) :   1.0197 B( 16-C , 18-H ) :   1.0021 B( 16-C , 19-H ) :   0.9500
B( 20-C , 21-H ) :   1.0150 B( 20-C , 22-H ) :   1.0126 B( 20-C , 23-H ) :   1.0365
B( 24-Au, 25-P ) :   0.8980 B( 25-P , 26-H ) :   0.9563 B( 25-P , 27-H ) :   0.9604
B( 25-P , 28-H ) :   0.9561

MP2 TOTAL ENERGY:    -1054.050325199 Eh
Dispersion correction           -0.029005404
FINAL SINGLE POINT ENERGY     -1054.079330603137

DIPOLE MOMENT
-------------
                                X             Y             Z
Electronic contribution:   -213.29494     -43.42406      -1.30339
Nuclear contribution   :    216.19870      43.43467       1.47956
                        -----------------------------------------
Total Dipole Moment    :      2.90376       0.01061       0.17617
                        -----------------------------------------
Magnitude (a.u.)       :      2.90912
Magnitude (Debye)      :      7.39440

Rotational constants in cm-1:     0.028648     0.008219     0.007101
Rotational constants in MHz :   858.848987   246.390678   212.872024

                             ****ORCA TERMINATED NORMALLY****
TOTAL RUN TIME: 0 days 0 hours 1 minutes 21 seconds 336 msec
