                         Program Version 4.2.0 -  RELEASE  -
|  1> #
|  2> # TMB28_T1 ri-B2PLYP-D3BJ/Def2-TZVPPD
|  3> #
|  4> ! rijk ri-b2plyp d3bj def2-tzvppd def2/jk def2-tzvppd/c grid4 nofinalgrid
|  5>
|  6> *xyz 0 1
|  7> C       -0.472087   -1.270184   -0.544262
|  8> C       -1.371263   -0.408913   -0.410763
|  9> C       -0.283188   -2.679486   -0.928311
| 10> H       -1.250337   -3.132270   -1.147533
| 11> H        0.355340   -2.736203   -1.811412
| 12> H        0.207850   -3.220295   -0.118359
| 13> C       -2.087605    0.860649   -0.268000
| 14> O       -3.384272    0.602181    0.322954
| 15> C       -3.916162   -0.562532   -0.037107
| 16> O       -3.286397   -1.359772   -0.698080
| 17> C       -1.360806    1.791956    0.779385
| 18> O       -0.796250    2.763376    0.375084
| 19> C       -1.472551    1.401357    2.216606
| 20> H       -1.203914    0.352090    2.355444
| 21> H       -0.810137    2.031512    2.804683
| 22> H       -2.503869    1.535124    2.549793
| 23> C       -5.307153   -0.755812    0.455050
| 24> H       -5.663745   -1.741165    0.170882
| 25> H       -5.328847   -0.642840    1.539841
| 26> H       -5.952574    0.015643    0.032531
| 27> C       -2.259938    1.568911   -1.595082
| 28> H       -2.813189    2.495499   -1.446777
| 29> H       -1.275651    1.804221   -1.997337
| 30> H       -2.786554    0.924255   -2.298279
| 31> Au       1.278819   -0.204328   -0.045979
| 32> Cl       1.126476   -1.118462    2.051374
| 33> Cl       3.319842    0.694072    0.431966
| 34> Cl       1.372434    0.585236   -2.189571
| 35> *
| 36>
| 37> %maxcore 5000
| 38>
| 39> %pal
| 40> nprocs = 24
| 41> end
| 42>
| 43>
| 44>                          ****END OF INPUT****

CARTESIAN COORDINATES (ANGSTROEM)
---------------------------------
  C     -0.472087   -1.270184   -0.544262
  C     -1.371263   -0.408913   -0.410763
  C     -0.283188   -2.679486   -0.928311
  H     -1.250337   -3.132270   -1.147533
  H      0.355340   -2.736203   -1.811412
  H      0.207850   -3.220295   -0.118359
  C     -2.087605    0.860649   -0.268000
  O     -3.384272    0.602181    0.322954
  C     -3.916162   -0.562532   -0.037107
  O     -3.286397   -1.359772   -0.698080
  C     -1.360806    1.791956    0.779385
  O     -0.796250    2.763376    0.375084
  C     -1.472551    1.401357    2.216606
  H     -1.203914    0.352090    2.355444
  H     -0.810137    2.031512    2.804683
  H     -2.503869    1.535124    2.549793
  C     -5.307153   -0.755812    0.455050
  H     -5.663745   -1.741165    0.170882
  H     -5.328847   -0.642840    1.539841
  H     -5.952574    0.015643    0.032531
  C     -2.259938    1.568911   -1.595082
  H     -2.813189    2.495499   -1.446777
  H     -1.275651    1.804221   -1.997337
  H     -2.786554    0.924255   -2.298279
  Au     1.278819   -0.204328   -0.045979
  Cl     1.126476   -1.118462    2.051374
  Cl     3.319842    0.694072    0.431966
  Cl     1.372434    0.585236   -2.189571

 Total Charge           Charge          ....    0
 Multiplicity           Mult            ....    1
 Number of Electrons    NEL             ....  160
 Basis Dimension        Dim             ....  869

ORBITAL ENERGIES
----------------

  NO   OCC          E(Eh)            E(eV)
   0   2.0000    -102.877566     -2799.4409
   1   2.0000    -102.875477     -2799.3840
   2   2.0000    -102.863441     -2799.0565
   3   2.0000     -19.839892      -539.8709
   4   2.0000     -19.789040      -538.4871
   5   2.0000     -19.760970      -537.7233
   6   2.0000     -10.821784      -294.4757
   7   2.0000     -10.766815      -292.9799
   8   2.0000     -10.756642      -292.7031
   9   2.0000     -10.731325      -292.0142
  10   2.0000     -10.696497      -291.0665
  11   2.0000     -10.674487      -290.4676
  12   2.0000     -10.657757      -290.0123
  13   2.0000     -10.641296      -289.5644
  14   2.0000     -10.639670      -289.5201
  15   2.0000      -9.882612      -268.9195
  16   2.0000      -9.880399      -268.8593
  17   2.0000      -9.868203      -268.5275
  18   2.0000      -7.521477      -204.6698
  19   2.0000      -7.519372      -204.6125
  20   2.0000      -7.517058      -204.5495
  21   2.0000      -7.516783      -204.5421
  22   2.0000      -7.514792      -204.4879
  23   2.0000      -7.514481      -204.4794
  24   2.0000      -7.507370      -204.2859
  25   2.0000      -7.502497      -204.1533
  26   2.0000      -7.502079      -204.1420
  27   2.0000      -4.511417      -122.7619
  28   2.0000      -2.628317       -71.5201
  29   2.0000      -2.627174       -71.4890
  30   2.0000      -2.609046       -70.9958
  31   2.0000      -1.338432       -36.4206
  32   2.0000      -1.244338       -33.8601
  33   2.0000      -1.231251       -33.5040
  34   2.0000      -1.009281       -27.4639
  35   2.0000      -0.953628       -25.9495
  36   2.0000      -0.911085       -24.7919
  37   2.0000      -0.903287       -24.5797
  38   2.0000      -0.891850       -24.2685
  39   2.0000      -0.884438       -24.0668
  40   2.0000      -0.876829       -23.8597
  41   2.0000      -0.854536       -23.2531
  42   2.0000      -0.802018       -21.8240
  43   2.0000      -0.746578       -20.3154
  44   2.0000      -0.702729       -19.1222
  45   2.0000      -0.653533       -17.7835
  46   2.0000      -0.627923       -17.0866
  47   2.0000      -0.620070       -16.8730
  48   2.0000      -0.596010       -16.2183
  49   2.0000      -0.583283       -15.8719
  50   2.0000      -0.570168       -15.5151
  51   2.0000      -0.557150       -15.1608
  52   2.0000      -0.549132       -14.9426
  53   2.0000      -0.542225       -14.7547
  54   2.0000      -0.537848       -14.6356
  55   2.0000      -0.528544       -14.3824
  56   2.0000      -0.522522       -14.2186
  57   2.0000      -0.517172       -14.0730
  58   2.0000      -0.513590       -13.9755
  59   2.0000      -0.510135       -13.8815
  60   2.0000      -0.502381       -13.6705
  61   2.0000      -0.496648       -13.5145
  62   2.0000      -0.491244       -13.3674
  63   2.0000      -0.486452       -13.2370
  64   2.0000      -0.479357       -13.0440
  65   2.0000      -0.470717       -12.8089
  66   2.0000      -0.458512       -12.4768
  67   2.0000      -0.447054       -12.1650
  68   2.0000      -0.440422       -11.9845
  69   2.0000      -0.409326       -11.1383
  70   2.0000      -0.395771       -10.7695
  71   2.0000      -0.385545       -10.4912
  72   2.0000      -0.373549       -10.1648
  73   2.0000      -0.366839        -9.9822
  74   2.0000      -0.354508        -9.6466
  75   2.0000      -0.337889        -9.1944
  76   2.0000      -0.335450        -9.1281
  77   2.0000      -0.332024        -9.0348
  78   2.0000      -0.328336        -8.9345
  79   2.0000      -0.319817        -8.7027
  80   0.0000      -0.096105        -2.6151
  81   0.0000      -0.020990        -0.5712
  82   0.0000       0.001488         0.0405
  83   0.0000       0.005715         0.1555
  84   0.0000       0.020676         0.5626

MULLIKEN ATOMIC CHARGES
-----------------------
   0 C :   -0.582875
   1 C :    0.751804
   2 C :   -0.916895
   3 H :    0.080541
   4 H :    0.166958
   5 H :    0.172646
   6 C :    3.364179
   7 O :   -0.482653
   8 C :    0.725603
   9 O :   -0.581186
  10 C :   -0.002013
  11 O :   -0.523118
  12 C :   -0.485559
  13 H :    0.164531
  14 H :    0.085424
  15 H :    0.115130
  16 C :   -0.595912
  17 H :    0.133858
  18 H :    0.125928
  19 H :    0.137161
  20 C :   -0.890697
  21 H :    0.097403
  22 H :    0.108267
  23 H :    0.155484
  24 Au:    0.211354
  25 Cl:   -0.555561
  26 Cl:   -0.447018
  27 Cl:   -0.532783
Sum of atomic charges:   -0.0000000

LOEWDIN ATOMIC CHARGES
----------------------
   0 C :   -0.298811
   1 C :    0.061571
   2 C :    0.139715
   3 H :   -0.002187
   4 H :   -0.000906
   5 H :   -0.013199
   6 C :   -0.322241
   7 O :    0.066225
   8 C :   -0.408185
   9 O :    0.120918
  10 C :   -0.306956
  11 O :    0.124704
  12 C :    0.212271
  13 H :   -0.046051
  14 H :    0.011792
  15 H :    0.005976
  16 C :    0.264460
  17 H :    0.008881
  18 H :    0.013568
  19 H :    0.014399
  20 C :    0.225384
  21 H :    0.017462
  22 H :   -0.021077
  23 H :    0.013421
  24 Au:    0.287440
  25 Cl:   -0.020462
  26 Cl:   -0.125514
  27 Cl:   -0.022600

  Mayer bond orders larger than 0.100000
B(  0-C ,  1-C ) :  -0.5039 B(  0-C ,  2-C ) :   1.0663 B(  0-C ,  4-H ) :  -0.1140
B(  0-C ,  6-C ) :  -0.8801 B(  0-C ,  9-O ) :   0.1358 B(  0-C , 24-Au) :   1.5061
B(  0-C , 25-Cl) :   0.4487 B(  0-C , 27-Cl) :   0.6049 B(  1-C ,  2-C ) :  -0.5866
B(  1-C ,  3-H ) :  -0.1387 B(  1-C ,  9-O ) :  -0.1098 B(  1-C , 10-C ) :   0.8878
B(  1-C , 12-C ) :   0.2109 B(  1-C , 20-C ) :   0.3450 B(  1-C , 24-Au) :  -1.0172
B(  1-C , 25-Cl) :  -0.7203 B(  1-C , 27-Cl) :  -0.8956 B(  2-C ,  3-H ) :   1.0881
B(  2-C ,  4-H ) :   0.9944 B(  2-C ,  5-H ) :   0.9949 B(  6-C ,  7-O ) :   0.2783
B(  6-C ,  8-C ) :  -0.1184 B(  6-C , 10-C ) :  -0.5595 B(  6-C , 12-C ) :  -0.2422
B(  6-C , 20-C ) :   0.4129 B(  6-C , 24-Au) :  -0.2883 B(  7-O ,  8-C ) :   1.1192
B(  7-O , 10-C ) :   0.1273 B(  7-O , 20-C ) :   0.1361 B(  8-C ,  9-O ) :   1.7137
B(  8-C , 16-C ) :   0.9328 B( 10-C , 11-O ) :   1.6980 B( 10-C , 12-C ) :   1.2291
B( 12-C , 13-H ) :   0.9528 B( 12-C , 14-H ) :   1.0534 B( 12-C , 15-H ) :   0.9642
B( 16-C , 17-H ) :   1.0370 B( 16-C , 18-H ) :   0.9856 B( 16-C , 19-H ) :   0.9867
B( 20-C , 21-H ) :   1.0289 B( 20-C , 22-H ) :   0.9880 B( 20-C , 23-H ) :   1.0054
B( 24-Au, 25-Cl) :   0.9828 B( 24-Au, 26-Cl) :   0.7278 B( 24-Au, 27-Cl) :   0.9648
B( 25-Cl, 27-Cl) :   0.1216

MP2 TOTAL ENERGY:    -2091.496552024 Eh
Dispersion correction           -0.036030147
FINAL SINGLE POINT ENERGY     -2091.532582171405

DIPOLE MOMENT
-------------
                                X             Y             Z
Electronic contribution:    196.04767     -27.71938      -6.39832
Nuclear contribution   :   -200.70985      26.65253       6.49371
                        -----------------------------------------
Total Dipole Moment    :     -4.66218      -1.06685       0.09539
                        -----------------------------------------
Magnitude (a.u.)       :      4.78364
Magnitude (Debye)      :     12.15903

Rotational constants in cm-1:     0.016870     0.006757     0.006678
Rotational constants in MHz :   505.750873   202.581775   200.209050

                             ****ORCA TERMINATED NORMALLY****
TOTAL RUN TIME: 0 days 0 hours 1 minutes 45 seconds 59 msec
