                         Program Version 4.2.0 -  RELEASE  -
|  1> #
|  2> # TMB20_C1 ri-B2PLYP-D3BJ/Def2-TZVPPD
|  3> #
|  4> ! rijk ri-b2plyp d3bj def2-tzvppd def2/jk def2-tzvppd/c grid4 nofinalgrid
|  5>
|  6> *xyz 0 1
|  7> Re      -1.072665    0.212376   -0.034636
|  8> C       -1.072260   -0.271683    1.857255
|  9> C       -2.882577   -0.347239   -0.151918
| 10> C       -1.671800    1.974535    0.387813
| 11> Br      -0.106106   -2.222959   -0.227559
| 12> O       -2.042355    3.032773    0.649150
| 13> O       -1.092539   -0.543239    2.965184
| 14> O       -3.977345   -0.680746   -0.233754
| 15> C       -1.097144    1.301488   -2.052782
| 16> C       -0.757943    0.130940   -2.251371
| 17> C        3.116548    1.792974   -0.035452
| 18> C        3.822495    0.593532    0.034050
| 19> O        3.256440   -0.568022    0.077602
| 20> O        5.128051    0.619793    0.055969
| 21> C        1.730040    1.757413   -0.054388
| 22> O        1.074850    0.675289   -0.001074
| 23> H        2.259004   -0.423965    0.051981
| 24> C        5.826586   -0.629933    0.127198
| 25> H        6.879482   -0.365214    0.136783
| 26> H        5.557636   -1.164457    1.037079
| 27> H        5.594141   -1.245208   -0.740821
| 28> H       -0.446457   -0.764543   -2.749196
| 29> H        3.656243    2.725032   -0.072675
| 30> H       -1.374127    2.315189   -2.254725
| 31> H        1.177176    2.699572   -0.113184
| 32> *
| 33>
| 34> %maxcore 5000
| 35>
| 36> %pal
| 37> nprocs = 24
| 38> end
| 39>
| 40>
| 41>                          ****END OF INPUT****

CARTESIAN COORDINATES (ANGSTROEM)
---------------------------------
  Re    -1.072665    0.212376   -0.034636
  C     -1.072260   -0.271683    1.857255
  C     -2.882577   -0.347239   -0.151918
  C     -1.671800    1.974535    0.387813
  Br    -0.106106   -2.222959   -0.227559
  O     -2.042355    3.032773    0.649150
  O     -1.092539   -0.543239    2.965184
  O     -3.977345   -0.680746   -0.233754
  C     -1.097144    1.301488   -2.052782
  C     -0.757943    0.130940   -2.251371
  C      3.116548    1.792974   -0.035452
  C      3.822495    0.593532    0.034050
  O      3.256440   -0.568022    0.077602
  O      5.128051    0.619793    0.055969
  C      1.730040    1.757413   -0.054388
  O      1.074850    0.675289   -0.001074
  H      2.259004   -0.423965    0.051981
  C      5.826586   -0.629933    0.127198
  H      6.879482   -0.365214    0.136783
  H      5.557636   -1.164457    1.037079
  H      5.594141   -1.245208   -0.740821
  H     -0.446457   -0.764543   -2.749196
  H      3.656243    2.725032   -0.072675
  H     -1.374127    2.315189   -2.254725
  H      1.177176    2.699572   -0.113184

 Total Charge           Charge          ....    0
 Multiplicity           Mult            ....    1
 Number of Electrons    NEL             ....  160
 Basis Dimension        Dim             ....  825

ORBITAL ENERGIES
----------------

  NO   OCC          E(Eh)            E(eV)
   0   2.0000    -485.785967    -13218.9082
   1   2.0000     -63.537235     -1728.9361
   2   2.0000     -57.160243     -1555.4093
   3   2.0000     -57.159109     -1555.3784
   4   2.0000     -57.159005     -1555.3756
   5   2.0000     -19.826582      -539.5087
   6   2.0000     -19.811388      -539.0953
   7   2.0000     -19.805695      -538.9404
   8   2.0000     -19.796131      -538.6801
   9   2.0000     -19.785614      -538.3939
  10   2.0000     -19.766515      -537.8742
  11   2.0000     -10.815648      -294.3087
  12   2.0000     -10.744658      -292.3770
  13   2.0000     -10.743045      -292.3331
  14   2.0000     -10.742171      -292.3093
  15   2.0000     -10.728204      -291.9293
  16   2.0000     -10.707297      -291.3604
  17   2.0000     -10.662743      -290.1480
  18   2.0000     -10.653199      -289.8883
  19   2.0000     -10.640904      -289.5537
  20   2.0000      -9.097510      -247.5558
  21   2.0000      -6.833432      -185.9471
  22   2.0000      -6.829339      -185.8358
  23   2.0000      -6.829012      -185.8269
  24   2.0000      -3.412992       -92.8722
  25   2.0000      -2.793608       -76.0179
  26   2.0000      -2.792316       -75.9828
  27   2.0000      -2.792029       -75.9750
  28   2.0000      -2.788179       -75.8702
  29   2.0000      -2.788167       -75.8699
  30   2.0000      -1.908197       -51.9247
  31   2.0000      -1.906707       -51.8841
  32   2.0000      -1.903739       -51.8034
  33   2.0000      -1.331614       -36.2351
  34   2.0000      -1.287094       -35.0236
  35   2.0000      -1.277083       -34.7512
  36   2.0000      -1.266444       -34.4617
  37   2.0000      -1.251121       -34.0447
  38   2.0000      -1.220282       -33.2056
  39   2.0000      -0.948774       -25.8175
  40   2.0000      -0.917565       -24.9682
  41   2.0000      -0.872921       -23.7534
  42   2.0000      -0.800322       -21.7779
  43   2.0000      -0.763659       -20.7802
  44   2.0000      -0.755462       -20.5572
  45   2.0000      -0.687023       -18.6949
  46   2.0000      -0.676469       -18.4077
  47   2.0000      -0.666538       -18.1374
  48   2.0000      -0.660149       -17.9636
  49   2.0000      -0.654084       -17.7985
  50   2.0000      -0.631233       -17.1767
  51   2.0000      -0.620638       -16.8884
  52   2.0000      -0.612898       -16.6778
  53   2.0000      -0.597563       -16.2605
  54   2.0000      -0.575654       -15.6643
  55   2.0000      -0.564102       -15.3500
  56   2.0000      -0.546197       -14.8628
  57   2.0000      -0.545062       -14.8319
  58   2.0000      -0.543402       -14.7867
  59   2.0000      -0.538807       -14.6617
  60   2.0000      -0.536339       -14.5945
  61   2.0000      -0.532561       -14.4917
  62   2.0000      -0.528632       -14.3848
  63   2.0000      -0.521077       -14.1792
  64   2.0000      -0.512830       -13.9548
  65   2.0000      -0.510085       -13.8801
  66   2.0000      -0.501924       -13.6581
  67   2.0000      -0.498359       -13.5610
  68   2.0000      -0.476311       -12.9611
  69   2.0000      -0.445202       -12.1146
  70   2.0000      -0.411209       -11.1896
  71   2.0000      -0.405131       -11.0242
  72   2.0000      -0.387168       -10.5354
  73   2.0000      -0.339226        -9.2308
  74   2.0000      -0.328822        -8.9477
  75   2.0000      -0.324659        -8.8344
  76   2.0000      -0.319363        -8.6903
  77   2.0000      -0.274107        -7.4588
  78   2.0000      -0.273250        -7.4355
  79   2.0000      -0.263688        -7.1753
  80   0.0000      -0.029562        -0.8044
  81   0.0000      -0.005570        -0.1516
  82   0.0000       0.009677         0.2633
  83   0.0000       0.019705         0.5362
  84   0.0000       0.027287         0.7425

MULLIKEN ATOMIC CHARGES
-----------------------
   0 Re:    0.709592
   1 C :    0.362754
   2 C :    0.646634
   3 C :    0.193333
   4 Br:   -0.728351
   5 O :   -0.420858
   6 O :   -0.329166
   7 O :   -0.410432
   8 C :   -0.082840
   9 C :   -0.057591
  10 C :   -0.640413
  11 C :    0.925551
  12 O :   -0.458470
  13 O :   -0.340634
  14 C :    0.787668
  15 O :   -0.865999
  16 H :    0.411637
  17 C :   -0.126011
  18 H :    0.082619
  19 H :    0.139375
  20 H :    0.138165
  21 H :    0.068268
  22 H :   -0.030705
  23 H :    0.020592
  24 H :    0.005283
Sum of atomic charges:   -0.0000000

LOEWDIN ATOMIC CHARGES
----------------------
   0 Re:    0.537537
   1 C :   -0.271963
   2 C :   -0.279112
   3 C :   -0.269818
   4 Br:    0.089983
   5 O :    0.089622
   6 O :    0.116326
   7 O :    0.100173
   8 C :    0.032188
   9 C :   -0.028848
  10 C :    0.114958
  11 C :   -0.313759
  12 O :    0.340945
  13 O :    0.042883
  14 C :   -0.088842
  15 O :   -0.190311
  16 H :   -0.210287
  17 C :    0.200604
  18 H :    0.016022
  19 H :    0.018810
  20 H :    0.018688
  21 H :   -0.071708
  22 H :    0.009148
  23 H :   -0.044689
  24 H :    0.041451

  Mayer bond orders larger than 0.100000
B(  0-Re,  1-C ) :   0.9674 B(  0-Re,  2-C ) :   1.4281 B(  0-Re,  3-C ) :   1.2254
B(  0-Re,  4-Br) :   0.2343 B(  0-Re,  7-O ) :   0.1219 B(  0-Re,  8-C ) :   0.5857
B(  0-Re,  9-C ) :   0.4129 B(  0-Re, 15-O ) :   0.2661 B(  1-C ,  2-C ) :  -0.1301
B(  1-C ,  4-Br) :   0.1095 B(  1-C ,  6-O ) :   2.1039 B(  2-C ,  7-O ) :   2.0466
B(  3-C ,  5-O ) :   2.0203 B(  3-C ,  8-C ) :   0.1054 B(  8-C ,  9-C ) :   1.9575
B(  8-C , 21-H ) :  -0.1129 B(  8-C , 23-H ) :   1.1094 B(  9-C , 21-H ) :   1.1176
B(  9-C , 23-H ) :  -0.1113 B( 10-C , 11-C ) :   0.9731 B( 10-C , 14-C ) :   1.0966
B( 10-C , 22-H ) :   1.2230 B( 10-C , 24-H ) :  -0.1467 B( 11-C , 12-O ) :   1.0698
B( 11-C , 13-O ) :   0.9912 B( 11-C , 15-O ) :   0.1645 B( 12-O , 16-H ) :   0.7480
B( 13-O , 17-C ) :   0.7908 B( 14-C , 15-O ) :   1.0513 B( 14-C , 22-H ) :  -0.1234
B( 14-C , 24-H ) :   1.0424 B( 17-C , 18-H ) :   1.0399 B( 17-C , 19-H ) :   0.9850
B( 17-C , 20-H ) :   0.9845

MP2 TOTAL ENERGY:    -3450.958167853 Eh
Dispersion correction           -0.030512981
FINAL SINGLE POINT ENERGY     -3450.988680833826

DIPOLE MOMENT
-------------
                                X             Y             Z
Electronic contribution:   -158.38967      14.40743      -4.00862
Nuclear contribution   :    161.40681     -12.70221       3.21078
                        -----------------------------------------
Total Dipole Moment    :      3.01714       1.70521      -0.79784
                        -----------------------------------------
Magnitude (a.u.)       :      3.55632
Magnitude (Debye)      :      9.03945

Rotational constants in cm-1:     0.015589     0.006706     0.005713
Rotational constants in MHz :   467.340547   201.035293   171.274519

                             ****ORCA TERMINATED NORMALLY****
TOTAL RUN TIME: 0 days 0 hours 1 minutes 34 seconds 827 msec
