                         Program Version 4.2.0 -  RELEASE  -
|  1> #
|  2> # TMB20_T1 ri-B2PLYP-D3BJ/Def2-TZVPPD
|  3> #
|  4> ! rijk ri-b2plyp d3bj def2-tzvppd def2/jk def2-tzvppd/c grid4 nofinalgrid
|  5>
|  6> *xyz 0 1
|  7> Re       1.075850    0.159419    0.019780
|  8> C        2.196750   -0.403878   -1.423482
|  9> C        2.402994   -0.436307    1.215711
| 10> C        1.922458    1.855293   -0.011396
| 11> Br      -0.261613   -2.102343    0.064683
| 12> O        2.449833    2.881230   -0.022028
| 13> O        2.868443   -0.722069   -2.296753
| 14> O        3.210599   -0.792996    1.955405
| 15> C       -1.539667    1.495797    1.625423
| 16> C       -0.428781    0.920088    1.558456
| 17> C       -2.591644    1.677755   -0.408432
| 18> C       -3.343269    0.487162   -0.270226
| 19> O       -2.954237   -0.721219   -0.381568
| 20> O       -4.608112    0.658864    0.009021
| 21> C       -1.326616    1.715594   -1.019432
| 22> O       -0.664105    0.697605   -1.265770
| 23> H       -1.956019   -0.923705   -0.405218
| 24> C       -5.425994   -0.504251    0.214760
| 25> H       -6.403655   -0.115620    0.482117
| 26> H       -5.482311   -1.089893   -0.701194
| 27> H       -5.017526   -1.116193    1.017061
| 28> H        0.138084    0.692302    2.461523
| 29> H       -3.155110    2.594425   -0.305352
| 30> H       -2.375145    2.018826    2.037613
| 31> H       -0.897368    2.710605   -1.208716
| 32> *
| 33>
| 34> %maxcore 5000
| 35>
| 36> %pal
| 37> nprocs = 24
| 38> end
| 39>
| 40>
| 41>                          ****END OF INPUT****

CARTESIAN COORDINATES (ANGSTROEM)
---------------------------------
  Re     1.075850    0.159419    0.019780
  C      2.196750   -0.403878   -1.423482
  C      2.402994   -0.436307    1.215711
  C      1.922458    1.855293   -0.011396
  Br    -0.261613   -2.102343    0.064683
  O      2.449833    2.881230   -0.022028
  O      2.868443   -0.722069   -2.296753
  O      3.210599   -0.792996    1.955405
  C     -1.539667    1.495797    1.625423
  C     -0.428781    0.920088    1.558456
  C     -2.591644    1.677755   -0.408432
  C     -3.343269    0.487162   -0.270226
  O     -2.954237   -0.721219   -0.381568
  O     -4.608112    0.658864    0.009021
  C     -1.326616    1.715594   -1.019432
  O     -0.664105    0.697605   -1.265770
  H     -1.956019   -0.923705   -0.405218
  C     -5.425994   -0.504251    0.214760
  H     -6.403655   -0.115620    0.482117
  H     -5.482311   -1.089893   -0.701194
  H     -5.017526   -1.116193    1.017061
  H      0.138084    0.692302    2.461523
  H     -3.155110    2.594425   -0.305352
  H     -2.375145    2.018826    2.037613
  H     -0.897368    2.710605   -1.208716

 Total Charge           Charge          ....    0
 Multiplicity           Mult            ....    1
 Number of Electrons    NEL             ....  160
 Basis Dimension        Dim             ....  825

ORBITAL ENERGIES
----------------

  NO   OCC          E(Eh)            E(eV)
   0   2.0000    -485.793613    -13219.1163
   1   2.0000     -63.545060     -1729.1490
   2   2.0000     -57.167757     -1555.6137
   3   2.0000     -57.167159     -1555.5975
   4   2.0000     -57.166898     -1555.5904
   5   2.0000     -19.843527      -539.9698
   6   2.0000     -19.827068      -539.5219
   7   2.0000     -19.780974      -538.2677
   8   2.0000     -19.775710      -538.1244
   9   2.0000     -19.771934      -538.0217
  10   2.0000     -19.755206      -537.5665
  11   2.0000     -10.840172      -294.9761
  12   2.0000     -10.753258      -292.6110
  13   2.0000     -10.722599      -291.7768
  14   2.0000     -10.720830      -291.7286
  15   2.0000     -10.718686      -291.6703
  16   2.0000     -10.717437      -291.6363
  17   2.0000     -10.703381      -291.2538
  18   2.0000     -10.667753      -290.2843
  19   2.0000     -10.645838      -289.6880
  20   2.0000      -9.105412      -247.7708
  21   2.0000      -6.840323      -186.1346
  22   2.0000      -6.838156      -186.0757
  23   2.0000      -6.837149      -186.0483
  24   2.0000      -3.396063       -92.4116
  25   2.0000      -2.800640       -76.2093
  26   2.0000      -2.800105       -76.1947
  27   2.0000      -2.799138       -76.1684
  28   2.0000      -2.797096       -76.1129
  29   2.0000      -2.797055       -76.1117
  30   2.0000      -1.893646       -51.5287
  31   2.0000      -1.888403       -51.3861
  32   2.0000      -1.888097       -51.3777
  33   2.0000      -1.349483       -36.7213
  34   2.0000      -1.261492       -34.3269
  35   2.0000      -1.258531       -34.2464
  36   2.0000      -1.255386       -34.1608
  37   2.0000      -1.251982       -34.0682
  38   2.0000      -1.228105       -33.4184
  39   2.0000      -0.968170       -26.3452
  40   2.0000      -0.921306       -25.0700
  41   2.0000      -0.882101       -24.0032
  42   2.0000      -0.817302       -22.2399
  43   2.0000      -0.782642       -21.2968
  44   2.0000      -0.758290       -20.6341
  45   2.0000      -0.697221       -18.9723
  46   2.0000      -0.684555       -18.6277
  47   2.0000      -0.667896       -18.1744
  48   2.0000      -0.642427       -17.4813
  49   2.0000      -0.641392       -17.4532
  50   2.0000      -0.636812       -17.3285
  51   2.0000      -0.628464       -17.1014
  52   2.0000      -0.617658       -16.8073
  53   2.0000      -0.587954       -15.9990
  54   2.0000      -0.572169       -15.5695
  55   2.0000      -0.561689       -15.2843
  56   2.0000      -0.551288       -15.0013
  57   2.0000      -0.541644       -14.7389
  58   2.0000      -0.530492       -14.4354
  59   2.0000      -0.529764       -14.4156
  60   2.0000      -0.523155       -14.2358
  61   2.0000      -0.518144       -14.0994
  62   2.0000      -0.515105       -14.0167
  63   2.0000      -0.505597       -13.7580
  64   2.0000      -0.501815       -13.6551
  65   2.0000      -0.497880       -13.5480
  66   2.0000      -0.494882       -13.4664
  67   2.0000      -0.492892       -13.4123
  68   2.0000      -0.491267       -13.3681
  69   2.0000      -0.459238       -12.4965
  70   2.0000      -0.406229       -11.0540
  71   2.0000      -0.395660       -10.7664
  72   2.0000      -0.389454       -10.5976
  73   2.0000      -0.344220        -9.3667
  74   2.0000      -0.337168        -9.1748
  75   2.0000      -0.321520        -8.7490
  76   2.0000      -0.315581        -8.5874
  77   2.0000      -0.272574        -7.4171
  78   2.0000      -0.266304        -7.2465
  79   2.0000      -0.259306        -7.0561
  80   0.0000      -0.047934        -1.3044
  81   0.0000      -0.035516        -0.9664
  82   0.0000       0.000782         0.0213
  83   0.0000       0.016741         0.4556
  84   0.0000       0.017340         0.4719

MULLIKEN ATOMIC CHARGES
-----------------------
   0 Re:    0.504594
   1 C :    0.623690
   2 C :    0.344062
   3 C :    0.124077
   4 Br:   -0.737986
   5 O :   -0.413498
   6 O :   -0.384967
   7 O :   -0.405963
   8 C :   -0.140336
   9 C :    0.305703
  10 C :   -0.076820
  11 C :    0.818689
  12 O :   -0.387607
  13 O :   -0.331154
  14 C :    0.376930
  15 O :   -0.747828
  16 H :    0.337953
  17 C :   -0.148642
  18 H :    0.084046
  19 H :    0.142098
  20 H :    0.146781
  21 H :   -0.103764
  22 H :    0.060532
  23 H :    0.016819
  24 H :   -0.007408
Sum of atomic charges:   -0.0000000

LOEWDIN ATOMIC CHARGES
----------------------
   0 Re:    0.535087
   1 C :   -0.263992
   2 C :   -0.320892
   3 C :   -0.265306
   4 Br:    0.214067
   5 O :    0.071189
   6 O :    0.097996
   7 O :    0.078142
   8 C :    0.211411
   9 C :   -0.061290
  10 C :    0.038416
  11 C :   -0.324461
  12 O :    0.299288
  13 O :    0.041248
  14 C :   -0.174682
  15 O :   -0.161007
  16 H :   -0.302807
  17 C :    0.212025
  18 H :    0.017334
  19 H :    0.020697
  20 H :    0.021024
  21 H :   -0.031806
  22 H :    0.024328
  23 H :   -0.030956
  24 H :    0.054948

  Mayer bond orders larger than 0.100000
B(  0-Re,  1-C ) :   1.3125 B(  0-Re,  2-C ) :   1.4533 B(  0-Re,  3-C ) :   1.4452
B(  0-Re,  4-Br) :   0.2969 B(  0-Re,  6-O ) :   0.1019 B(  0-Re,  9-C ) :   0.4749
B(  0-Re, 15-O ) :   0.2817 B(  1-C ,  2-C ) :  -0.1427 B(  1-C ,  6-O ) :   2.0673
B(  1-C ,  8-C ) :   0.1331 B(  1-C ,  9-C ) :  -0.1209 B(  2-C ,  4-Br) :   0.1074
B(  2-C ,  7-O ) :   2.0202 B(  3-C ,  5-O ) :   2.0080 B(  4-Br, 16-H ) :   0.1046
B(  8-C ,  9-C ) :   1.8334 B(  8-C , 11-C ) :   0.1627 B(  8-C , 14-C ) :   0.1274
B(  8-C , 23-H ) :   1.1703 B(  9-C , 21-H ) :   1.0496 B(  9-C , 23-H ) :  -0.1552
B( 10-C , 11-C ) :   0.9348 B( 10-C , 14-C ) :   1.2244 B( 10-C , 22-H ) :   1.1307
B( 11-C , 12-O ) :   1.0482 B( 11-C , 13-O ) :   0.9035 B( 12-O , 16-H ) :   0.7567
B( 13-O , 17-C ) :   0.8052 B( 14-C , 15-O ) :   1.2761 B( 14-C , 24-H ) :   1.0443
B( 17-C , 18-H ) :   1.0433 B( 17-C , 19-H ) :   0.9800 B( 17-C , 20-H ) :   0.9764

MP2 TOTAL ENERGY:    -3450.900100385 Eh
Dispersion correction           -0.032902120
FINAL SINGLE POINT ENERGY     -3450.933002504195

DIPOLE MOMENT
-------------
                                X             Y             Z
Electronic contribution:    156.26981       7.39493       1.61279
Nuclear contribution   :   -160.68759      -5.62073      -0.99353
                        -----------------------------------------
Total Dipole Moment    :     -4.41778       1.77420       0.61926
                        -----------------------------------------
Magnitude (a.u.)       :      4.80084
Magnitude (Debye)      :     12.20276

Rotational constants in cm-1:     0.016566     0.007303     0.006214
Rotational constants in MHz :   496.645586   218.925333   186.291690

                             ****ORCA TERMINATED NORMALLY****
TOTAL RUN TIME: 0 days 0 hours 1 minutes 40 seconds 565 msec
