                         Program Version 4.2.0 -  RELEASE  -
|  1> #
|  2> # TMB20_T2 ri-B2PLYP-D3BJ/Def2-TZVPPD
|  3> #
|  4> ! rijk ri-b2plyp d3bj def2-tzvppd def2/jk def2-tzvppd/c grid4 nofinalgrid
|  5>
|  6> *xyz 0 1
|  7> Re       0.995979    0.090170   -0.058185
|  8> C        2.014396   -1.161086   -1.123855
|  9> C        1.992692   -0.479631    1.452527
| 10> C        2.318376    1.423242   -0.367549
| 11> Br      -0.834689   -1.732689    0.254349
| 12> O        3.132368    2.217573   -0.550268
| 13> O        2.612239   -1.888693   -1.769425
| 14> O        2.568963   -0.789175    2.393169
| 15> C       -1.540273    1.685786    1.546594
| 16> C       -0.263771    1.318522    1.475095
| 17> C       -2.014636    1.773094    0.144138
| 18> C       -2.942101    0.711821   -0.394874
| 19> O       -2.841029    0.284728   -1.529710
| 20> O       -3.882762    0.367872    0.447794
| 21> C       -0.602735    1.743713   -0.435058
| 22> O       -0.382838    0.990264   -1.561710
| 23> H       -1.229741    0.476538   -1.736592
| 24> C       -4.752144   -0.688497    0.013665
| 25> H       -5.447661   -0.845693    0.832416
| 26> H       -5.279179   -0.395656   -0.893281
| 27> H       -4.161178   -1.583930   -0.173849
| 28> H        0.422554    1.379477    2.313653
| 29> H       -2.484103    2.733887   -0.106082
| 30> H       -2.090878    1.979492    2.431124
| 31> H       -0.128477    2.714877   -0.508669
| 32> *
| 33>
| 34> %maxcore 5000
| 35>
| 36> %pal
| 37> nprocs = 24
| 38> end
| 39>
| 40>
| 41>                          ****END OF INPUT****

CARTESIAN COORDINATES (ANGSTROEM)
---------------------------------
  Re     0.995979    0.090170   -0.058185
  C      2.014396   -1.161086   -1.123855
  C      1.992692   -0.479631    1.452527
  C      2.318376    1.423242   -0.367549
  Br    -0.834689   -1.732689    0.254349
  O      3.132368    2.217573   -0.550268
  O      2.612239   -1.888693   -1.769425
  O      2.568963   -0.789175    2.393169
  C     -1.540273    1.685786    1.546594
  C     -0.263771    1.318522    1.475095
  C     -2.014636    1.773094    0.144138
  C     -2.942101    0.711821   -0.394874
  O     -2.841029    0.284728   -1.529710
  O     -3.882762    0.367872    0.447794
  C     -0.602735    1.743713   -0.435058
  O     -0.382838    0.990264   -1.561710
  H     -1.229741    0.476538   -1.736592
  C     -4.752144   -0.688497    0.013665
  H     -5.447661   -0.845693    0.832416
  H     -5.279179   -0.395656   -0.893281
  H     -4.161178   -1.583930   -0.173849
  H      0.422554    1.379477    2.313653
  H     -2.484103    2.733887   -0.106082
  H     -2.090878    1.979492    2.431124
  H     -0.128477    2.714877   -0.508669

 Total Charge           Charge          ....    0
 Multiplicity           Mult            ....    1
 Number of Electrons    NEL             ....  160
 Basis Dimension        Dim             ....  825

ORBITAL ENERGIES
----------------

  NO   OCC          E(Eh)            E(eV)
   0   2.0000    -485.790782    -13219.0392
   1   2.0000     -63.542081     -1729.0679
   2   2.0000     -57.164968     -1555.5379
   3   2.0000     -57.164006     -1555.5117
   4   2.0000     -57.163945     -1555.5100
   5   2.0000     -19.825294      -539.4737
   6   2.0000     -19.813369      -539.1492
   7   2.0000     -19.808067      -539.0049
   8   2.0000     -19.801917      -538.8376
   9   2.0000     -19.793117      -538.5981
  10   2.0000     -19.758983      -537.6693
  11   2.0000     -10.802706      -293.9566
  12   2.0000     -10.780758      -293.3593
  13   2.0000     -10.747179      -292.4456
  14   2.0000     -10.743356      -292.3416
  15   2.0000     -10.736759      -292.1621
  16   2.0000     -10.691017      -290.9174
  17   2.0000     -10.690752      -290.9102
  18   2.0000     -10.673633      -290.4443
  19   2.0000     -10.659954      -290.0721
  20   2.0000      -9.102317      -247.6866
  21   2.0000      -6.837878      -186.0681
  22   2.0000      -6.834319      -185.9713
  23   2.0000      -6.834100      -185.9653
  24   2.0000      -3.417062       -92.9830
  25   2.0000      -2.798123       -76.1408
  26   2.0000      -2.796893       -76.1073
  27   2.0000      -2.796694       -76.1019
  28   2.0000      -2.793391       -76.0120
  29   2.0000      -2.793385       -76.0119
  30   2.0000      -1.917918       -52.1892
  31   2.0000      -1.909002       -51.9466
  32   2.0000      -1.908088       -51.9217
  33   2.0000      -1.309327       -35.6286
  34   2.0000      -1.289221       -35.0815
  35   2.0000      -1.282923       -34.9101
  36   2.0000      -1.274960       -34.6934
  37   2.0000      -1.272543       -34.6277
  38   2.0000      -1.209350       -32.9081
  39   2.0000      -1.018791       -27.7227
  40   2.0000      -0.889512       -24.2049
  41   2.0000      -0.844308       -22.9748
  42   2.0000      -0.808827       -22.0093
  43   2.0000      -0.806093       -21.9349
  44   2.0000      -0.712645       -19.3921
  45   2.0000      -0.695856       -18.9352
  46   2.0000      -0.683668       -18.6035
  47   2.0000      -0.664940       -18.0939
  48   2.0000      -0.660119       -17.9628
  49   2.0000      -0.656097       -17.8533
  50   2.0000      -0.645361       -17.5612
  51   2.0000      -0.614340       -16.7170
  52   2.0000      -0.609641       -16.5892
  53   2.0000      -0.597736       -16.2652
  54   2.0000      -0.584601       -15.9078
  55   2.0000      -0.570104       -15.5133
  56   2.0000      -0.554026       -15.0758
  57   2.0000      -0.549949       -14.9649
  58   2.0000      -0.545729       -14.8500
  59   2.0000      -0.538596       -14.6559
  60   2.0000      -0.536805       -14.6072
  61   2.0000      -0.526601       -14.3296
  62   2.0000      -0.523761       -14.2522
  63   2.0000      -0.520250       -14.1567
  64   2.0000      -0.517997       -14.0954
  65   2.0000      -0.510526       -13.8921
  66   2.0000      -0.506273       -13.7764
  67   2.0000      -0.478614       -13.0237
  68   2.0000      -0.468053       -12.7364
  69   2.0000      -0.464219       -12.6321
  70   2.0000      -0.415163       -11.2971
  71   2.0000      -0.411604       -11.2003
  72   2.0000      -0.393911       -10.7189
  73   2.0000      -0.371697       -10.1144
  74   2.0000      -0.342397        -9.3171
  75   2.0000      -0.330578        -8.9955
  76   2.0000      -0.314896        -8.5688
  77   2.0000      -0.294670        -8.0184
  78   2.0000      -0.274187        -7.4610
  79   2.0000      -0.269755        -7.3404
  80   0.0000      -0.035226        -0.9585
  81   0.0000       0.001364         0.0371
  82   0.0000       0.011429         0.3110
  83   0.0000       0.016939         0.4609
  84   0.0000       0.024282         0.6608

MULLIKEN ATOMIC CHARGES
-----------------------
   0 Re:    0.373830
   1 C :    0.576480
   2 C :    0.379859
   3 C :    0.188725
   4 Br:   -0.671394
   5 O :   -0.409532
   6 O :   -0.350549
   7 O :   -0.384677
   8 C :   -0.556178
   9 C :   -0.013290
  10 C :    1.286886
  11 C :    0.251255
  12 O :   -0.632994
  13 O :   -0.295632
  14 C :   -0.025740
  15 O :   -0.544896
  16 H :    0.443765
  17 C :   -0.136064
  18 H :    0.089140
  19 H :    0.133138
  20 H :    0.120551
  21 H :   -0.071108
  22 H :    0.099009
  23 H :   -0.076708
  24 H :    0.226126
Sum of atomic charges:   -0.0000000

LOEWDIN ATOMIC CHARGES
----------------------
   0 Re:    0.554825
   1 C :   -0.250761
   2 C :   -0.294498
   3 C :   -0.243772
   4 Br:    0.148583
   5 O :    0.089165
   6 O :    0.119799
   7 O :    0.115939
   8 C :    0.019683
   9 C :    0.030686
  10 C :   -0.084533
  11 C :   -0.456861
  12 O :    0.097064
  13 O :    0.024864
  14 C :   -0.127873
  15 O :    0.127429
  16 H :   -0.202760
  17 C :    0.198457
  18 H :    0.014472
  19 H :    0.015023
  20 H :    0.005392
  21 H :   -0.033674
  22 H :    0.073097
  23 H :    0.017718
  24 H :    0.042534

  Mayer bond orders larger than 0.100000
B(  0-Re,  1-C ) :   1.1716 B(  0-Re,  2-C ) :   1.3935 B(  0-Re,  3-C ) :   1.4550
B(  0-Re,  4-Br) :   0.2766 B(  0-Re,  9-C ) :   0.3356 B(  0-Re, 14-C ) :   0.3828
B(  0-Re, 15-O ) :   0.3680 B(  1-C ,  2-C ) :  -0.1583 B(  1-C ,  6-O ) :   2.1357
B(  2-C ,  4-Br) :   0.1147 B(  2-C ,  7-O ) :   2.0844 B(  2-C ,  9-C ) :   0.1698
B(  3-C ,  5-O ) :   2.0104 B(  4-Br, 11-C ) :   0.1031 B(  8-C ,  9-C ) :   1.5597
B(  8-C , 10-C ) :   0.7014 B(  8-C , 14-C ) :   0.1049 B(  8-C , 23-H ) :   1.1879
B(  9-C , 14-C ) :   0.3514 B(  9-C , 21-H ) :   1.1483 B(  9-C , 23-H ) :  -0.1071
B( 10-C , 11-C ) :   0.2067 B( 10-C , 14-C ) :   1.0736 B( 10-C , 22-H ) :   0.7918
B( 11-C , 12-O ) :   1.4515 B( 11-C , 13-O ) :   0.8857 B( 11-C , 14-C ) :   0.4429
B( 13-O , 17-C ) :   0.7760 B( 14-C , 15-O ) :   0.7250 B( 14-C , 24-H ) :   0.9344
B( 15-O , 16-H ) :   0.8378 B( 17-C , 18-H ) :   1.0498 B( 17-C , 19-H ) :   0.9735
B( 17-C , 20-H ) :   0.9813

MP2 TOTAL ENERGY:    -3450.927941730 Eh
Dispersion correction           -0.033815056
FINAL SINGLE POINT ENERGY     -3450.961756785961

DIPOLE MOMENT
-------------
                                X             Y             Z
Electronic contribution:    141.10649      -0.54759      -7.44871
Nuclear contribution   :   -143.25315       2.56406       7.67326
                        -----------------------------------------
Total Dipole Moment    :     -2.14666       2.01648       0.22455
                        -----------------------------------------
Magnitude (a.u.)       :      2.95377
Magnitude (Debye)      :      7.50788

Rotational constants in cm-1:     0.017495     0.008280     0.007326
Rotational constants in MHz :   524.496520   248.224980   219.630549

                             ****ORCA TERMINATED NORMALLY****
TOTAL RUN TIME: 0 days 0 hours 1 minutes 43 seconds 669 msec
