                         Program Version 4.2.0 -  RELEASE  -
|  1> #
|  2> # TMB26_C1 ri-B2PLYP-D3BJ/Def2-TZVPPD
|  3> #
|  4> ! rijk ri-b2plyp d3bj def2-tzvppd def2/jk def2-tzvppd/c grid4 nofinalgrid
|  5>
|  6> *xyz 0 1
|  7> C        2.167128    1.329895    0.039526
|  8> C        2.525644    0.739273   -1.166486
|  9> C        3.439975   -0.306708   -1.174383
| 10> C        3.999633   -0.766755    0.014468
| 11> C        3.640245   -0.158436    1.215781
| 12> C        2.734668    0.894978    1.231934
| 13> H        2.127840    1.087811   -2.109674
| 14> H        4.700013   -1.586902    0.006791
| 15> H        2.446371    1.320973    2.183519
| 16> C        1.181573    2.421289    0.068499
| 17> C        1.441057    3.589123    0.775147
| 18> C       -0.063177    2.327678   -0.606474
| 19> C        0.528793    4.632414    0.796916
| 20> H        2.386085    3.685262    1.294444
| 21> C       -0.980026    3.398239   -0.582106
| 22> C       -0.681931    4.545260    0.115481
| 23> H        0.768969    5.533734    1.348653
| 24> H       -1.927777    3.275890   -1.088947
| 25> H       -1.387173    5.365524    0.142831
| 26> C       -0.458921    1.154963   -1.244997
| 27> C       -0.929867    0.115196   -1.736149
| 28> H       -0.939302   -0.474790   -2.633558
| 29> Au      -1.934281   -0.752855   -0.093938
| 30> Cl      -0.307197   -2.360512   -0.181170
| 31> Cl      -3.051038   -1.907317    1.520981
| 32> Cl      -3.535590    0.885204   -0.082121
| 33> O        3.733505   -0.820421   -2.387318
| 34> O        4.122752   -0.537296    2.416831
| 35> C        4.611393   -1.919557   -2.452177
| 36> H        4.218896   -2.777901   -1.898414
| 37> H        4.691177   -2.180906   -3.505103
| 38> H        5.605429   -1.663635   -2.071314
| 39> C        4.983111   -1.650773    2.472584
| 40> H        5.218240   -1.797897    3.524384
| 41> H        4.497038   -2.550975    2.084317
| 42> H        5.911564   -1.470782    1.920934
| 43> *
| 44>
| 45> %maxcore 5000
| 46>
| 47> %pal
| 48> nprocs = 24
| 49> end
| 50>
| 51>
| 52>                          ****END OF INPUT****

CARTESIAN COORDINATES (ANGSTROEM)
---------------------------------
  C      2.167128    1.329895    0.039526
  C      2.525644    0.739273   -1.166486
  C      3.439975   -0.306708   -1.174383
  C      3.999633   -0.766755    0.014468
  C      3.640245   -0.158436    1.215781
  C      2.734668    0.894978    1.231934
  H      2.127840    1.087811   -2.109674
  H      4.700013   -1.586902    0.006791
  H      2.446371    1.320973    2.183519
  C      1.181573    2.421289    0.068499
  C      1.441057    3.589123    0.775147
  C     -0.063177    2.327678   -0.606474
  C      0.528793    4.632414    0.796916
  H      2.386085    3.685262    1.294444
  C     -0.980026    3.398239   -0.582106
  C     -0.681931    4.545260    0.115481
  H      0.768969    5.533734    1.348653
  H     -1.927777    3.275890   -1.088947
  H     -1.387173    5.365524    0.142831
  C     -0.458921    1.154963   -1.244997
  C     -0.929867    0.115196   -1.736149
  H     -0.939302   -0.474790   -2.633558
  Au    -1.934281   -0.752855   -0.093938
  Cl    -0.307197   -2.360512   -0.181170
  Cl    -3.051038   -1.907317    1.520981
  Cl    -3.535590    0.885204   -0.082121
  O      3.733505   -0.820421   -2.387318
  O      4.122752   -0.537296    2.416831
  C      4.611393   -1.919557   -2.452177
  H      4.218896   -2.777901   -1.898414
  H      4.691177   -2.180906   -3.505103
  H      5.605429   -1.663635   -2.071314
  C      4.983111   -1.650773    2.472584
  H      5.218240   -1.797897    3.524384
  H      4.497038   -2.550975    2.084317
  H      5.911564   -1.470782    1.920934

 Total Charge           Charge          ....    0
 Multiplicity           Mult            ....    1
 Number of Electrons    NEL             ....  196
 Basis Dimension        Dim             .... 1122

ORBITAL ENERGIES
----------------

  NO   OCC          E(Eh)            E(eV)
   0   2.0000    -102.868889     -2799.2048
   1   2.0000    -102.867730     -2799.1732
   2   2.0000    -102.860794     -2798.9845
   3   2.0000     -19.771291      -538.0042
   4   2.0000     -19.770105      -537.9719
   5   2.0000     -10.715457      -291.5824
   6   2.0000     -10.700164      -291.1663
   7   2.0000     -10.700059      -291.1634
   8   2.0000     -10.687328      -290.8170
   9   2.0000     -10.686381      -290.7912
  10   2.0000     -10.680432      -290.6293
  11   2.0000     -10.679302      -290.5986
  12   2.0000     -10.679098      -290.5930
  13   2.0000     -10.673978      -290.4537
  14   2.0000     -10.673401      -290.4380
  15   2.0000     -10.657659      -290.0096
  16   2.0000     -10.657207      -289.9974
  17   2.0000     -10.655405      -289.9483
  18   2.0000     -10.630406      -289.2680
  19   2.0000     -10.625458      -289.1334
  20   2.0000     -10.624002      -289.0938
  21   2.0000      -9.873899      -268.6824
  22   2.0000      -9.872617      -268.6476
  23   2.0000      -9.865564      -268.4557
  24   2.0000      -7.512779      -204.4331
  25   2.0000      -7.511574      -204.4003
  26   2.0000      -7.508331      -204.3121
  27   2.0000      -7.508039      -204.3041
  28   2.0000      -7.507001      -204.2759
  29   2.0000      -7.506710      -204.2680
  30   2.0000      -7.504784      -204.2155
  31   2.0000      -7.499812      -204.0803
  32   2.0000      -7.499386      -204.0687
  33   2.0000      -4.502956      -122.5317
  34   2.0000      -2.620272       -71.3012
  35   2.0000      -2.618912       -71.2642
  36   2.0000      -2.600169       -70.7542
  37   2.0000      -1.234484       -33.5920
  38   2.0000      -1.232133       -33.5280
  39   2.0000      -1.048920       -28.5426
  40   2.0000      -1.000109       -27.2144
  41   2.0000      -0.968385       -26.3511
  42   2.0000      -0.931819       -25.3561
  43   2.0000      -0.906074       -24.6555
  44   2.0000      -0.894396       -24.3378
  45   2.0000      -0.892928       -24.2978
  46   2.0000      -0.876620       -23.8541
  47   2.0000      -0.872915       -23.7532
  48   2.0000      -0.868636       -23.6368
  49   2.0000      -0.838245       -22.8098
  50   2.0000      -0.803001       -21.8508
  51   2.0000      -0.780291       -21.2328
  52   2.0000      -0.756037       -20.5728
  53   2.0000      -0.710810       -19.3421
  54   2.0000      -0.702922       -19.1275
  55   2.0000      -0.671300       -18.2670
  56   2.0000      -0.645403       -17.5623
  57   2.0000      -0.626909       -17.0591
  58   2.0000      -0.609681       -16.5903
  59   2.0000      -0.594075       -16.1656
  60   2.0000      -0.587939       -15.9986
  61   2.0000      -0.582078       -15.8391
  62   2.0000      -0.571478       -15.5507
  63   2.0000      -0.567977       -15.4555
  64   2.0000      -0.561667       -15.2837
  65   2.0000      -0.548818       -14.9341
  66   2.0000      -0.539999       -14.6941
  67   2.0000      -0.536680       -14.6038
  68   2.0000      -0.524236       -14.2652
  69   2.0000      -0.521879       -14.2011
  70   2.0000      -0.508629       -13.8405
  71   2.0000      -0.501651       -13.6506
  72   2.0000      -0.489077       -13.3085
  73   2.0000      -0.483449       -13.1553
  74   2.0000      -0.481308       -13.0971
  75   2.0000      -0.475044       -12.9266
  76   2.0000      -0.472005       -12.8439
  77   2.0000      -0.465306       -12.6616
  78   2.0000      -0.458355       -12.4725
  79   2.0000      -0.450939       -12.2707
  80   2.0000      -0.430063       -11.7026
  81   2.0000      -0.426280       -11.5997
  82   2.0000      -0.422693       -11.5021
  83   2.0000      -0.416568       -11.3354
  84   2.0000      -0.395212       -10.7543
  85   2.0000      -0.393565       -10.7095
  86   2.0000      -0.386219       -10.5096
  87   2.0000      -0.365392        -9.9428
  88   2.0000      -0.358111        -9.7447
  89   2.0000      -0.351698        -9.5702
  90   2.0000      -0.338815        -9.2196
  91   2.0000      -0.330932        -9.0051
  92   2.0000      -0.327427        -8.9098
  93   2.0000      -0.324388        -8.8270
  94   2.0000      -0.322075        -8.7641
  95   2.0000      -0.313985        -8.5440
  96   2.0000      -0.293483        -7.9861
  97   2.0000      -0.269518        -7.3340
  98   0.0000      -0.105405        -2.8682
  99   0.0000      -0.038385        -1.0445
 100   0.0000      -0.007060        -0.1921
 101   0.0000       0.013411         0.3649
 102   0.0000       0.018633         0.5070

MULLIKEN ATOMIC CHARGES
-----------------------
   0 C :    1.467163
   1 C :   -0.699621
   2 C :    0.464151
   3 C :    0.044147
   4 C :    0.478322
   5 C :   -0.700353
   6 H :   -0.068058
   7 H :   -0.093670
   8 H :   -0.051976
   9 C :    0.599972
  10 C :   -0.062101
  11 C :    0.309286
  12 C :   -0.143063
  13 H :   -0.009296
  14 C :   -0.525784
  15 C :    0.047768
  16 H :    0.004421
  17 H :   -0.016448
  18 H :    0.004191
  19 C :    1.052614
  20 C :   -0.604902
  21 H :    0.109303
  22 Au:    0.474866
  23 Cl:   -0.479299
  24 Cl:   -0.371412
  25 Cl:   -0.510953
  26 O :   -0.471573
  27 O :   -0.467956
  28 C :   -0.213062
  29 H :    0.123731
  30 H :    0.062920
  31 H :    0.130559
  32 C :   -0.207439
  33 H :    0.063026
  34 H :    0.136496
  35 H :    0.124031
Sum of atomic charges:    0.0000000

LOEWDIN ATOMIC CHARGES
----------------------
   0 C :   -0.137530
   1 C :    0.110003
   2 C :   -0.214606
   3 C :    0.130888
   4 C :   -0.213848
   5 C :    0.118998
   6 H :    0.024986
   7 H :   -0.014831
   8 H :    0.025981
   9 C :   -0.071242
  10 C :    0.077755
  11 C :   -0.155692
  12 C :    0.067154
  13 H :    0.019761
  14 C :    0.075783
  15 C :    0.046424
  16 H :    0.014025
  17 H :    0.003438
  18 H :    0.009432
  19 C :   -0.034525
  20 C :   -0.062036
  21 H :   -0.038791
  22 Au:    0.237462
  23 Cl:   -0.080647
  24 Cl:   -0.133932
  25 Cl:   -0.062982
  26 O :   -0.037343
  27 O :   -0.035252
  28 C :    0.126685
  29 H :    0.014882
  30 H :    0.012402
  31 H :    0.011613
  32 C :    0.126815
  33 H :    0.012716
  34 H :    0.014936
  35 H :    0.011118

  Mayer bond orders larger than 0.100000
B(  0-C ,  1-C ) :   0.3276 B(  0-C ,  3-C ) :  -0.2535 B(  0-C ,  4-C ) :  -0.1695
B(  0-C ,  5-C ) :   0.5387 B(  0-C ,  6-H ) :  -0.3859 B(  0-C ,  8-H ) :  -0.2888
B(  0-C ,  9-C ) :  -1.3597 B(  0-C , 10-C ) :  -0.3107 B(  0-C , 11-C ) :  -0.3776
B(  0-C , 12-C ) :  -0.1793 B(  0-C , 14-C ) :  -0.2751 B(  0-C , 15-C ) :   0.1039
B(  0-C , 19-C ) :   0.2603 B(  1-C ,  2-C ) :   1.3748 B(  1-C ,  3-C ) :  -0.1005
B(  1-C ,  5-C ) :   0.1972 B(  1-C ,  6-H ) :   1.2537 B(  1-C ,  9-C ) :  -0.1449
B(  1-C , 10-C ) :   0.3834 B(  1-C , 12-C ) :  -0.1438 B(  1-C , 14-C ) :  -0.2014
B(  1-C , 15-C ) :   0.1023 B(  1-C , 19-C ) :   0.1330 B(  2-C ,  3-C ) :   1.1894
B(  2-C ,  4-C ) :   0.1269 B(  2-C ,  7-H ) :  -0.1351 B(  2-C , 10-C ) :  -0.2397
B(  2-C , 12-C ) :   0.1178 B(  2-C , 14-C ) :   0.1679 B(  2-C , 26-O ) :   0.7363
B(  3-C ,  4-C ) :   1.1759 B(  3-C ,  7-H ) :   1.1209 B(  3-C ,  9-C ) :   0.2363
B(  3-C , 10-C ) :   0.1564 B(  4-C ,  5-C ) :   1.2373 B(  4-C ,  7-H ) :  -0.1436
B(  4-C , 10-C ) :  -0.1133 B(  4-C , 14-C ) :   0.1271 B(  4-C , 27-O ) :   0.7925
B(  5-C ,  8-H ) :   1.2431 B(  5-C ,  9-C ) :  -0.4050 B(  5-C , 10-C ) :   0.2853
B(  5-C , 11-C ) :  -0.1400 B(  5-C , 14-C ) :  -0.1183 B(  5-C , 19-C ) :   0.1107
B(  9-C , 10-C ) :   0.5671 B(  9-C , 11-C ) :   0.6062 B(  9-C , 12-C ) :   0.1069
B(  9-C , 13-H ) :  -0.1760 B(  9-C , 14-C ) :   0.2234 B(  9-C , 19-C ) :  -0.6455
B(  9-C , 20-C ) :   0.2721 B( 10-C , 11-C ) :  -0.2403 B( 10-C , 12-C ) :   1.2302
B( 10-C , 13-H ) :   1.1553 B( 10-C , 19-C ) :   0.1488 B( 11-C , 14-C ) :   1.4807
B( 11-C , 15-C ) :  -0.3118 B( 11-C , 20-C ) :  -1.0422 B( 12-C , 13-H ) :  -0.1053
B( 12-C , 14-C ) :   0.1265 B( 12-C , 15-C ) :   1.1506 B( 12-C , 16-H ) :   1.1083
B( 12-C , 18-H ) :  -0.1147 B( 14-C , 15-C ) :   1.1364 B( 14-C , 17-H ) :   1.1588
B( 14-C , 18-H ) :  -0.1008 B( 14-C , 19-C ) :  -0.6184 B( 15-C , 16-H ) :  -0.1197
B( 15-C , 17-H ) :  -0.1688 B( 15-C , 18-H ) :   1.1182 B( 15-C , 19-C ) :   0.1061
B( 19-C , 20-C ) :   1.5756 B( 19-C , 22-Au) :  -0.3199 B( 19-C , 23-Cl) :  -0.4174
B( 19-C , 25-Cl) :  -0.1565 B( 20-C , 21-H ) :   0.9072 B( 20-C , 22-Au) :   1.0214
B( 20-C , 23-Cl) :   0.3023 B( 22-Au, 23-Cl) :   0.7996 B( 22-Au, 24-Cl) :   0.7628
B( 22-Au, 25-Cl) :   0.8510 B( 23-Cl, 25-Cl) :   0.1207 B( 26-O , 28-C ) :   0.8862
B( 27-O , 32-C ) :   0.8697 B( 28-C , 29-H ) :   0.9898 B( 28-C , 30-H ) :   1.0806
B( 28-C , 31-H ) :   0.9833 B( 32-C , 33-H ) :   1.0804 B( 32-C , 34-H ) :   0.9910
B( 32-C , 35-H ) :   0.9830

MP2 TOTAL ENERGY:    -2284.074421812 Eh
Dispersion correction           -0.046372560
FINAL SINGLE POINT ENERGY     -2284.120794372066

DIPOLE MOMENT
-------------
                                X             Y             Z
Electronic contribution:   -300.14964    -110.45376     -12.46946
Nuclear contribution   :    303.49748     112.54151      11.37787
                        -----------------------------------------
Total Dipole Moment    :      3.34784       2.08776      -1.09159
                        -----------------------------------------
Magnitude (a.u.)       :      4.09369
Magnitude (Debye)      :     10.40533

Rotational constants in cm-1:     0.007370     0.004054     0.003244
Rotational constants in MHz :   220.947502   121.548879    97.259691

                             ****ORCA TERMINATED NORMALLY****
TOTAL RUN TIME: 0 days 0 hours 3 minutes 31 seconds 65 msec
