                         Program Version 4.2.0 -  RELEASE  -
|  1> #
|  2> # TMB26_T1 ri-B2PLYP-D3BJ/Def2-TZVPPD
|  3> #
|  4> ! rijk ri-b2plyp d3bj def2-tzvppd def2/jk def2-tzvppd/c grid4 nofinalgrid
|  5>
|  6> *xyz 0 1
|  7> C       -2.466566    1.069840    0.238308
|  8> C       -2.451721    0.070166    1.223311
|  9> C       -3.390268   -0.966147    1.168446
| 10> C       -4.328348   -1.022612    0.143865
| 11> C       -4.333048   -0.013813   -0.819144
| 12> C       -3.403006    1.027077   -0.774806
| 13> H       -1.851874    0.172622    2.118430
| 14> H       -5.044959   -1.827220    0.098719
| 15> H       -3.408268    1.764270   -1.566273
| 16> C       -1.433505    2.123552    0.250561
| 17> C       -1.778108    3.466931    0.185146
| 18> C       -0.064979    1.782593    0.286078
| 19> C       -0.802488    4.453319    0.169404
| 20> H       -2.826505    3.739000    0.161874
| 21> C        0.907771    2.775168    0.263672
| 22> C        0.538977    4.108677    0.211691
| 23> H       -1.095064    5.495288    0.125305
| 24> H        1.951961    2.493561    0.298441
| 25> H        1.301937    4.876538    0.199556
| 26> C        0.257789    0.377788    0.312230
| 27> C       -0.304042   -0.722217    0.502541
| 28> H       -0.515543   -1.762216    0.625327
| 29> Au       2.138195   -0.491597   -0.140080
| 30> Cl       1.419476   -1.043843   -2.240555
| 31> Cl       4.263347   -1.139807   -0.651257
| 32> Cl       2.780432    0.097050    1.979491
| 33> O       -3.309425   -1.870502    2.160546
| 34> O       -5.195970    0.025756   -1.845512
| 35> C       -4.244039   -2.927838    2.190952
| 36> H       -4.158173   -3.562934    1.304307
| 37> H       -4.005337   -3.514103    3.075014
| 38> H       -5.267556   -2.550903    2.273203
| 39> C       -6.143948   -1.010635   -1.979012
| 40> H       -6.717344   -0.779100   -2.873359
| 41> H       -5.656738   -1.981777   -2.105696
| 42> H       -6.818943   -1.047780   -1.118843
| 43> *
| 44>
| 45> %maxcore 5000
| 46>
| 47> %pal
| 48> nprocs = 24
| 49> end
| 50>
| 51>
| 52>                          ****END OF INPUT****

CARTESIAN COORDINATES (ANGSTROEM)
---------------------------------
  C     -2.466566    1.069840    0.238308
  C     -2.451721    0.070166    1.223311
  C     -3.390268   -0.966147    1.168446
  C     -4.328348   -1.022612    0.143865
  C     -4.333048   -0.013813   -0.819144
  C     -3.403006    1.027077   -0.774806
  H     -1.851874    0.172622    2.118430
  H     -5.044959   -1.827220    0.098719
  H     -3.408268    1.764270   -1.566273
  C     -1.433505    2.123552    0.250561
  C     -1.778108    3.466931    0.185146
  C     -0.064979    1.782593    0.286078
  C     -0.802488    4.453319    0.169404
  H     -2.826505    3.739000    0.161874
  C      0.907771    2.775168    0.263672
  C      0.538977    4.108677    0.211691
  H     -1.095064    5.495288    0.125305
  H      1.951961    2.493561    0.298441
  H      1.301937    4.876538    0.199556
  C      0.257789    0.377788    0.312230
  C     -0.304042   -0.722217    0.502541
  H     -0.515543   -1.762216    0.625327
  Au     2.138195   -0.491597   -0.140080
  Cl     1.419476   -1.043843   -2.240555
  Cl     4.263347   -1.139807   -0.651257
  Cl     2.780432    0.097050    1.979491
  O     -3.309425   -1.870502    2.160546
  O     -5.195970    0.025756   -1.845512
  C     -4.244039   -2.927838    2.190952
  H     -4.158173   -3.562934    1.304307
  H     -4.005337   -3.514103    3.075014
  H     -5.267556   -2.550903    2.273203
  C     -6.143948   -1.010635   -1.979012
  H     -6.717344   -0.779100   -2.873359
  H     -5.656738   -1.981777   -2.105696
  H     -6.818943   -1.047780   -1.118843

 Total Charge           Charge          ....    0
 Multiplicity           Mult            ....    1
 Number of Electrons    NEL             ....  196
 Basis Dimension        Dim             .... 1122

ORBITAL ENERGIES
----------------

  NO   OCC          E(Eh)            E(eV)
   0   2.0000    -102.869124     -2799.2112
   1   2.0000    -102.868664     -2799.1986
   2   2.0000    -102.860238     -2798.9694
   3   2.0000     -19.792959      -538.5938
   4   2.0000     -19.789793      -538.5076
   5   2.0000     -10.723248      -291.7944
   6   2.0000     -10.722341      -291.7697
   7   2.0000     -10.715102      -291.5728
   8   2.0000     -10.697715      -291.0996
   9   2.0000     -10.695185      -291.0308
  10   2.0000     -10.692506      -290.9579
  11   2.0000     -10.673245      -290.4338
  12   2.0000     -10.669476      -290.3312
  13   2.0000     -10.665429      -290.2211
  14   2.0000     -10.649004      -289.7741
  15   2.0000     -10.648312      -289.7553
  16   2.0000     -10.646800      -289.7142
  17   2.0000     -10.646670      -289.7106
  18   2.0000     -10.643922      -289.6358
  19   2.0000     -10.642904      -289.6081
  20   2.0000     -10.636230      -289.4265
  21   2.0000      -9.874032      -268.6861
  22   2.0000      -9.873514      -268.6720
  23   2.0000      -9.865020      -268.4408
  24   2.0000      -7.512974      -204.4384
  25   2.0000      -7.512493      -204.4253
  26   2.0000      -7.508457      -204.3155
  27   2.0000      -7.508103      -204.3059
  28   2.0000      -7.507945      -204.3016
  29   2.0000      -7.507527      -204.2902
  30   2.0000      -7.504148      -204.1983
  31   2.0000      -7.499363      -204.0681
  32   2.0000      -7.498875      -204.0548
  33   2.0000      -4.507955      -122.6677
  34   2.0000      -2.624920       -71.4277
  35   2.0000      -2.623235       -71.3818
  36   2.0000      -2.605732       -70.9056
  37   2.0000      -1.256026       -34.1782
  38   2.0000      -1.252902       -34.0932
  39   2.0000      -1.041621       -28.3439
  40   2.0000      -1.007853       -27.4251
  41   2.0000      -0.967057       -26.3150
  42   2.0000      -0.928662       -25.2702
  43   2.0000      -0.911362       -24.7994
  44   2.0000      -0.896514       -24.3954
  45   2.0000      -0.888836       -24.1864
  46   2.0000      -0.876761       -23.8579
  47   2.0000      -0.872898       -23.7528
  48   2.0000      -0.871485       -23.7143
  49   2.0000      -0.855910       -23.2905
  50   2.0000      -0.818189       -22.2641
  51   2.0000      -0.762706       -20.7543
  52   2.0000      -0.748721       -20.3737
  53   2.0000      -0.727871       -19.8064
  54   2.0000      -0.704086       -19.1591
  55   2.0000      -0.679468       -18.4893
  56   2.0000      -0.659946       -17.9580
  57   2.0000      -0.627959       -17.0876
  58   2.0000      -0.623898       -16.9771
  59   2.0000      -0.601046       -16.3553
  60   2.0000      -0.595324       -16.1996
  61   2.0000      -0.588817       -16.0225
  62   2.0000      -0.580737       -15.8027
  63   2.0000      -0.579256       -15.7624
  64   2.0000      -0.573568       -15.6076
  65   2.0000      -0.547694       -14.9035
  66   2.0000      -0.536604       -14.6017
  67   2.0000      -0.532359       -14.4862
  68   2.0000      -0.530276       -14.4295
  69   2.0000      -0.524411       -14.2699
  70   2.0000      -0.514774       -14.0077
  71   2.0000      -0.510404       -13.8888
  72   2.0000      -0.493285       -13.4230
  73   2.0000      -0.490253       -13.3405
  74   2.0000      -0.483442       -13.1551
  75   2.0000      -0.482971       -13.1423
  76   2.0000      -0.477928       -13.0051
  77   2.0000      -0.468941       -12.7605
  78   2.0000      -0.452118       -12.3028
  79   2.0000      -0.449948       -12.2437
  80   2.0000      -0.445888       -12.1332
  81   2.0000      -0.436254       -11.8711
  82   2.0000      -0.433685       -11.8012
  83   2.0000      -0.423809       -11.5324
  84   2.0000      -0.408050       -11.1036
  85   2.0000      -0.399236       -10.8638
  86   2.0000      -0.386569       -10.5191
  87   2.0000      -0.368875       -10.0376
  88   2.0000      -0.360336        -9.8052
  89   2.0000      -0.340317        -9.2605
  90   2.0000      -0.333895        -9.0858
  91   2.0000      -0.330757        -9.0004
  92   2.0000      -0.326328        -8.8798
  93   2.0000      -0.325261        -8.8508
  94   2.0000      -0.315750        -8.5920
  95   2.0000      -0.310873        -8.4593
  96   2.0000      -0.297423        -8.0933
  97   2.0000      -0.283277        -7.7084
  98   0.0000      -0.089055        -2.4233
  99   0.0000      -0.034101        -0.9279
 100   0.0000      -0.012200        -0.3320
 101   0.0000       0.002781         0.0757
 102   0.0000       0.005031         0.1369

MULLIKEN ATOMIC CHARGES
-----------------------
   0 C :    1.774770
   1 C :   -0.327395
   2 C :    0.309450
   3 C :   -0.069829
   4 C :    0.319109
   5 C :   -0.744615
   6 H :   -0.045459
   7 H :   -0.076196
   8 H :   -0.039067
   9 C :    0.514094
  10 C :   -0.189435
  11 C :    0.800305
  12 C :   -0.143589
  13 H :   -0.023305
  14 C :   -0.274009
  15 C :   -0.114702
  16 H :   -0.006711
  17 H :   -0.100946
  18 H :   -0.004141
  19 C :    0.633750
  20 C :    0.046543
  21 H :   -0.113001
  22 Au:    0.051695
  23 Cl:   -0.504886
  24 Cl:   -0.453593
  25 Cl:   -0.524485
  26 O :   -0.460691
  27 O :   -0.454623
  28 C :   -0.252342
  29 H :    0.134556
  30 H :    0.071161
  31 H :    0.145774
  32 C :   -0.215734
  33 H :    0.066555
  34 H :    0.138426
  35 H :    0.132563
Sum of atomic charges:    0.0000000

LOEWDIN ATOMIC CHARGES
----------------------
   0 C :   -0.125652
   1 C :    0.064856
   2 C :   -0.219046
   3 C :    0.130921
   4 C :   -0.206240
   5 C :    0.131828
   6 H :    0.036383
   7 H :   -0.014111
   8 H :    0.030946
   9 C :   -0.088666
  10 C :    0.068906
  11 C :   -0.152667
  12 C :    0.040129
  13 H :    0.017699
  14 C :    0.058507
  15 C :    0.039834
  16 H :    0.006755
  17 H :   -0.011511
  18 H :    0.007690
  19 C :   -0.318580
  20 C :    0.214600
  21 H :   -0.011601
  22 Au:    0.259535
  23 Cl:   -0.072265
  24 Cl:   -0.135688
  25 Cl:   -0.051318
  26 O :   -0.032323
  27 O :   -0.025905
  28 C :    0.136850
  29 H :    0.013780
  30 H :    0.014639
  31 H :    0.014291
  32 C :    0.135677
  33 H :    0.014342
  34 H :    0.014266
  35 H :    0.013138

  Mayer bond orders larger than 0.100000
B(  0-C ,  1-C ) :   0.1917 B(  0-C ,  3-C ) :  -0.3945 B(  0-C ,  5-C ) :   0.5913
B(  0-C ,  6-H ) :  -0.4762 B(  0-C ,  8-H ) :  -0.2584 B(  0-C ,  9-C ) :  -1.5135
B(  0-C , 10-C ) :  -0.2381 B(  0-C , 11-C ) :  -0.1214 B(  0-C , 12-C ) :  -0.1951
B(  0-C , 14-C ) :  -0.1411 B(  0-C , 15-C ) :   0.1172 B(  0-C , 19-C ) :  -0.1505
B(  0-C , 20-C ) :   0.1410 B(  1-C ,  2-C ) :   1.0070 B(  1-C ,  3-C ) :  -0.1206
B(  1-C ,  5-C ) :   0.2629 B(  1-C ,  6-H ) :   1.3669 B(  1-C ,  9-C ) :  -0.1844
B(  1-C , 10-C ) :   0.6174 B(  1-C , 12-C ) :  -0.1870 B(  1-C , 14-C ) :  -0.1702
B(  1-C , 15-C ) :   0.1286 B(  1-C , 20-C ) :   0.2250 B(  1-C , 26-O ) :  -0.1824
B(  2-C ,  3-C ) :   1.3622 B(  2-C ,  4-C ) :   0.2028 B(  2-C ,  5-C ) :  -0.1417
B(  2-C ,  6-H ) :   0.1784 B(  2-C ,  7-H ) :  -0.1469 B(  2-C , 10-C ) :  -0.4317
B(  2-C , 12-C ) :   0.1786 B(  2-C , 14-C ) :   0.2092 B(  2-C , 15-C ) :  -0.1070
B(  2-C , 20-C ) :  -0.1402 B(  2-C , 26-O ) :   0.7436 B(  3-C ,  4-C ) :   1.2794
B(  3-C ,  7-H ) :   1.1295 B(  3-C ,  9-C ) :   0.2476 B(  3-C , 10-C ) :   0.2221
B(  3-C , 11-C ) :  -0.1324 B(  3-C , 20-C ) :   0.1072 B(  4-C ,  5-C ) :   1.2873
B(  4-C ,  7-H ) :  -0.1061 B(  4-C , 10-C ) :  -0.2722 B(  4-C , 12-C ) :   0.1031
B(  4-C , 14-C ) :   0.1174 B(  4-C , 27-O ) :   0.8566 B(  5-C ,  8-H ) :   1.2384
B(  5-C ,  9-C ) :  -0.2975 B(  5-C , 10-C ) :   0.3977 B(  5-C , 11-C ) :  -0.1520
B(  5-C , 14-C ) :  -0.1370 B(  5-C , 20-C ) :   0.1428 B(  5-C , 27-O ) :  -0.1141
B(  9-C , 10-C ) :   0.4291 B(  9-C , 11-C ) :   0.7533 B(  9-C , 12-C ) :   0.1267
B(  9-C , 13-H ) :  -0.2175 B(  9-C , 19-C ) :  -0.1519 B( 10-C , 12-C ) :   1.2252
B( 10-C , 13-H ) :   1.1714 B( 11-C , 14-C ) :   1.0005 B( 11-C , 17-H ) :  -0.2668
B( 11-C , 19-C ) :  -0.2967 B( 11-C , 20-C ) :   0.1109 B( 11-C , 22-Au) :  -0.7138
B( 11-C , 25-Cl) :  -0.2919 B( 12-C , 15-C ) :   1.1767 B( 12-C , 16-H ) :   1.1221
B( 12-C , 18-H ) :  -0.1168 B( 14-C , 15-C ) :   1.1542 B( 14-C , 17-H ) :   1.2414
B( 15-C , 16-H ) :  -0.1164 B( 15-C , 17-H ) :  -0.1320 B( 15-C , 18-H ) :   1.1246
B( 19-C , 20-C ) :   1.4936 B( 19-C , 21-H ) :  -0.3119 B( 19-C , 22-Au) :   0.4379
B( 19-C , 23-Cl) :  -0.1095 B( 19-C , 25-Cl) :   0.2358 B( 20-C , 21-H ) :   1.3285
B( 20-C , 22-Au) :   0.1841 B( 20-C , 23-Cl) :  -0.2616 B( 20-C , 25-Cl) :  -0.3316
B( 22-Au, 23-Cl) :   1.0173 B( 22-Au, 24-Cl) :   0.7877 B( 22-Au, 25-Cl) :   1.0237
B( 23-Cl, 25-Cl) :   0.1261 B( 26-O , 28-C ) :   0.8866 B( 27-O , 32-C ) :   0.8675
B( 28-C , 29-H ) :   0.9761 B( 28-C , 30-H ) :   1.0860 B( 28-C , 31-H ) :   0.9830
B( 32-C , 33-H ) :   1.0820 B( 32-C , 34-H ) :   0.9856 B( 32-C , 35-H ) :   0.9829

MP2 TOTAL ENERGY:    -2284.058460442 Eh
Dispersion correction           -0.047741564
FINAL SINGLE POINT ENERGY     -2284.106202005881

DIPOLE MOMENT
-------------
                                X             Y             Z
Electronic contribution:    332.38383     -71.53637     -21.64818
Nuclear contribution   :   -337.50313      71.82916      22.27008
                        -----------------------------------------
Total Dipole Moment    :     -5.11930       0.29279       0.62190
                        -----------------------------------------
Magnitude (a.u.)       :      5.16524
Magnitude (Debye)      :     13.12900

Rotational constants in cm-1:     0.008801     0.003370     0.003018
Rotational constants in MHz :   263.837003   101.042363    90.466575

                             ****ORCA TERMINATED NORMALLY****
TOTAL RUN TIME: 0 days 0 hours 3 minutes 29 seconds 862 msec
