                         Program Version 4.2.0 -  RELEASE  -
|  1> #
|  2> # TMB29_T1 ri-B2PLYP-D3BJ/Def2-TZVPPD
|  3> #
|  4> ! rijk ri-b2plyp d3bj def2-tzvppd def2/jk def2-tzvppd/c grid4 nofinalgrid
|  5>
|  6> *xyz 1 1
|  7> C        0.302195   -1.452011   -0.105192
|  8> C        1.172851   -0.582511    0.135564
|  9> C        0.213900   -2.914548   -0.330337
| 10> H        1.214756   -3.345744   -0.317276
| 11> H       -0.388020   -3.382295    0.449588
| 12> H       -0.265099   -3.130327   -1.285361
| 13> C        1.829635    0.694580    0.494281
| 14> O        3.171960    0.697894   -0.020842
| 15> C        3.732653   -0.510299   -0.087290
| 16> O        3.070225   -1.500320    0.142290
| 17> C        1.080449    1.884401   -0.190647
| 18> O        0.030957    2.232541    0.278513
| 19> C        1.716450    2.521139   -1.379228
| 20> H        1.946637    1.771224   -2.139595
| 21> H        1.044796    3.276244   -1.779459
| 22> H        2.667103    2.978996   -1.097340
| 23> C        5.172060   -0.490501   -0.447138
| 24> H        5.507658   -1.496958   -0.678577
| 25> H        5.341426    0.179166   -1.290238
| 26> H        5.741456   -0.101237    0.400021
| 27> C        1.875471    0.903584    2.001010
| 28> H        2.434564    1.811885    2.227294
| 29> H        0.861108    1.010944    2.380408
| 30> H        2.353249    0.052039    2.484190
| 31> Au      -1.471331   -0.309724   -0.041930
| 32> P       -3.515153    0.680562    0.009165
| 33> H       -3.799713    1.607377   -1.007127
| 34> H       -4.633094   -0.165367   -0.073799
| 35> H       -3.823490    1.429925    1.156436
| 36> *
| 37>
| 38> %maxcore 5000
| 39>
| 40> %pal
| 41> nprocs = 24
| 42> end
| 43>
| 44>
| 45>                          ****END OF INPUT****

CARTESIAN COORDINATES (ANGSTROEM)
---------------------------------
  C      0.302195   -1.452011   -0.105192
  C      1.172851   -0.582511    0.135564
  C      0.213900   -2.914548   -0.330337
  H      1.214756   -3.345744   -0.317276
  H     -0.388020   -3.382295    0.449588
  H     -0.265099   -3.130327   -1.285361
  C      1.829635    0.694580    0.494281
  O      3.171960    0.697894   -0.020842
  C      3.732653   -0.510299   -0.087290
  O      3.070225   -1.500320    0.142290
  C      1.080449    1.884401   -0.190647
  O      0.030957    2.232541    0.278513
  C      1.716450    2.521139   -1.379228
  H      1.946637    1.771224   -2.139595
  H      1.044796    3.276244   -1.779459
  H      2.667103    2.978996   -1.097340
  C      5.172060   -0.490501   -0.447138
  H      5.507658   -1.496958   -0.678577
  H      5.341426    0.179166   -1.290238
  H      5.741456   -0.101237    0.400021
  C      1.875471    0.903584    2.001010
  H      2.434564    1.811885    2.227294
  H      0.861108    1.010944    2.380408
  H      2.353249    0.052039    2.484190
  Au    -1.471331   -0.309724   -0.041930
  P     -3.515153    0.680562    0.009165
  H     -3.799713    1.607377   -1.007127
  H     -4.633094   -0.165367   -0.073799
  H     -3.823490    1.429925    1.156436

 Total Charge           Charge          ....    1
 Multiplicity           Mult            ....    1
 Number of Electrons    NEL             ....  126
 Basis Dimension        Dim             ....  815

ORBITAL ENERGIES
----------------

  NO   OCC          E(Eh)            E(eV)
   0   2.0000     -78.448084     -2134.6809
   1   2.0000     -19.927121      -542.2445
   2   2.0000     -19.873838      -540.7946
   3   2.0000     -19.862342      -540.4818
   4   2.0000     -10.906226      -296.7735
   5   2.0000     -10.863878      -295.6211
   6   2.0000     -10.859534      -295.5029
   7   2.0000     -10.824339      -294.5453
   8   2.0000     -10.778736      -293.3043
   9   2.0000     -10.748993      -292.4950
  10   2.0000     -10.747982      -292.4675
  11   2.0000     -10.742580      -292.3205
  12   2.0000     -10.741689      -292.2962
  13   2.0000      -7.118324      -193.6994
  14   2.0000      -5.169434      -140.6675
  15   2.0000      -5.169412      -140.6669
  16   2.0000      -5.167776      -140.6223
  17   2.0000      -4.544922      -123.6736
  18   2.0000      -2.670426       -72.6660
  19   2.0000      -2.655130       -72.2498
  20   2.0000      -2.654975       -72.2455
  21   2.0000      -1.426992       -38.8304
  22   2.0000      -1.344279       -36.5797
  23   2.0000      -1.318496       -35.8781
  24   2.0000      -1.098552       -29.8931
  25   2.0000      -1.041777       -28.3482
  26   2.0000      -0.993921       -27.0460
  27   2.0000      -0.990305       -26.9476
  28   2.0000      -0.944401       -25.6985
  29   2.0000      -0.910845       -24.7854
  30   2.0000      -0.896557       -24.3965
  31   2.0000      -0.835324       -22.7303
  32   2.0000      -0.800032       -21.7700
  33   2.0000      -0.741603       -20.1800
  34   2.0000      -0.724339       -19.7103
  35   2.0000      -0.710059       -19.3217
  36   2.0000      -0.684503       -18.6263
  37   2.0000      -0.670375       -18.2418
  38   2.0000      -0.660593       -17.9757
  39   2.0000      -0.653785       -17.7904
  40   2.0000      -0.642489       -17.4830
  41   2.0000      -0.628738       -17.1088
  42   2.0000      -0.626909       -17.0591
  43   2.0000      -0.623477       -16.9657
  44   2.0000      -0.620550       -16.8860
  45   2.0000      -0.611318       -16.6348
  46   2.0000      -0.609956       -16.5977
  47   2.0000      -0.604462       -16.4483
  48   2.0000      -0.599238       -16.3061
  49   2.0000      -0.584464       -15.9041
  50   2.0000      -0.581022       -15.8104
  51   2.0000      -0.573898       -15.6166
  52   2.0000      -0.558696       -15.2029
  53   2.0000      -0.545069       -14.8321
  54   2.0000      -0.538651       -14.6574
  55   2.0000      -0.530936       -14.4475
  56   2.0000      -0.528022       -14.3682
  57   2.0000      -0.522425       -14.2159
  58   2.0000      -0.518950       -14.1214
  59   2.0000      -0.481801       -13.1105
  60   2.0000      -0.472895       -12.8681
  61   2.0000      -0.448619       -12.2075
  62   2.0000      -0.445533       -12.1236
  63   0.0000      -0.144381        -3.9288
  64   0.0000      -0.114461        -3.1146
  65   0.0000      -0.105109        -2.8602
  66   0.0000      -0.087829        -2.3899
  67   0.0000      -0.078088        -2.1249

MULLIKEN ATOMIC CHARGES
-----------------------
   0 C :    0.461652
   1 C :   -0.760841
   2 C :   -0.672887
   3 H :    0.084029
   4 H :    0.155758
   5 H :    0.157471
   6 C :    2.790828
   7 O :   -0.426055
   8 C :    0.712954
   9 O :   -0.565874
  10 C :    0.235412
  11 O :   -0.574133
  12 C :   -0.430877
  13 H :    0.099150
  14 H :    0.138819
  15 H :    0.108326
  16 C :   -0.620566
  17 H :    0.139084
  18 H :    0.133399
  19 H :    0.143802
  20 C :   -0.936321
  21 H :    0.123114
  22 H :    0.119206
  23 H :    0.163312
  24 Au:   -0.084843
  25 P :    0.067403
  26 H :    0.081761
  27 H :    0.074642
  28 H :    0.082272
Sum of atomic charges:    1.0000000

LOEWDIN ATOMIC CHARGES
----------------------
   0 C :   -0.230637
   1 C :    0.057803
   2 C :    0.129891
   3 H :   -0.004438
   4 H :   -0.003757
   5 H :   -0.006059
   6 C :   -0.331901
   7 O :    0.056004
   8 C :   -0.392226
   9 O :    0.120138
  10 C :   -0.309762
  11 O :    0.041626
  12 C :    0.237919
  13 H :    0.013766
  14 H :    0.011333
  15 H :    0.015784
  16 C :    0.272942
  17 H :    0.014299
  18 H :    0.015663
  19 H :    0.021638
  20 C :    0.242359
  21 H :    0.022103
  22 H :    0.008596
  23 H :    0.017206
  24 Au:    0.595711
  25 P :    0.866693
  26 H :   -0.159858
  27 H :   -0.164488
  28 H :   -0.158348

  Mayer bond orders larger than 0.100000
B(  0-C ,  1-C ) :   1.1476 B(  0-C ,  2-C ) :   1.0397 B(  0-C ,  6-C ) :  -0.1689
B(  0-C , 24-Au) :   0.5924 B(  1-C ,  2-C ) :  -0.3985 B(  1-C ,  6-C ) :   0.1067
B(  1-C , 10-C ) :   0.5102 B(  1-C , 20-C ) :   0.3098 B(  1-C , 24-Au) :   0.2674
B(  2-C ,  3-H ) :   1.0841 B(  2-C ,  4-H ) :   0.9864 B(  2-C ,  5-H ) :   0.9830
B(  6-C ,  7-O ) :   0.4476 B(  6-C ,  8-C ) :  -0.1336 B(  6-C , 20-C ) :   0.4664
B(  6-C , 21-H ) :  -0.1064 B(  7-O ,  8-C ) :   1.0986 B(  7-O , 20-C ) :   0.1512
B(  8-C ,  9-O ) :   1.7318 B(  8-C , 16-C ) :   0.9798 B( 10-C , 11-O ) :   1.6067
B( 10-C , 12-C ) :   0.9853 B( 12-C , 13-H ) :   0.9706 B( 12-C , 14-H ) :   1.0518
B( 12-C , 15-H ) :   0.9641 B( 16-C , 17-H ) :   1.0223 B( 16-C , 18-H ) :   0.9892
B( 16-C , 19-H ) :   0.9721 B( 20-C , 21-H ) :   1.0186 B( 20-C , 22-H ) :   1.0334
B( 20-C , 23-H ) :   0.9910 B( 24-Au, 25-P ) :   0.9672 B( 25-P , 26-H ) :   0.9505
B( 25-P , 27-H ) :   0.9540 B( 25-P , 28-H ) :   0.9514

MP2 TOTAL ENERGY:    -1054.038601374 Eh
Dispersion correction           -0.029009085
FINAL SINGLE POINT ENERGY     -1054.067610459228

DIPOLE MOMENT
-------------
                                X             Y             Z
Electronic contribution:   -212.10260     -43.03428      -5.73914
Nuclear contribution   :    212.91002      43.46471       5.39034
                        -----------------------------------------
Total Dipole Moment    :      0.80742       0.43043      -0.34880
                        -----------------------------------------
Magnitude (a.u.)       :      0.97921
Magnitude (Debye)      :      2.48896

Rotational constants in cm-1:     0.027720     0.008314     0.006995
Rotational constants in MHz :   831.016337   249.254276   209.717578

                             ****ORCA TERMINATED NORMALLY****
TOTAL RUN TIME: 0 days 0 hours 1 minutes 17 seconds 961 msec
