                         Program Version 4.2.0 -  RELEASE  -
|  1> #
|  2> # TMB20_T3 ri-B2PLYP-D3BJ/Def2-TZVPPD
|  3> #
|  4> ! rijk ri-b2plyp d3bj def2-tzvppd def2/jk def2-tzvppd/c grid4 nofinalgrid
|  5>
|  6> *xyz 0 1
|  7> Re      -0.699337    0.269974   -0.016922
|  8> C       -1.517494    1.171658    1.511937
|  9> C       -2.128741    0.734814   -1.269556
| 10> C        0.006415    1.979914   -0.520985
| 11> Br      -2.293994   -1.692635    0.422377
| 12> O        0.401983    3.017146   -0.812479
| 13> O       -1.978437    1.683611    2.420736
| 14> O       -2.925520    0.985618   -2.040062
| 15> C        1.682445   -0.880018   -1.649716
| 16> C        0.364751   -1.082540   -1.469297
| 17> C        2.354559    0.058914   -0.699791
| 18> C        3.755152   -0.401179   -0.311110
| 19> O        4.391770   -1.216840   -0.916463
| 20> O        4.190730    0.250058    0.766853
| 21> C        1.438220    0.283372    0.494253
| 22> O        0.848413   -0.807036    1.012308
| 23> H        0.600901   -1.340620   -0.125835
| 24> C        5.512413   -0.088930    1.195157
| 25> H        5.700542    0.516294    2.077458
| 26> H        5.571154   -1.149548    1.436871
| 27> H        6.234349    0.138790    0.411497
| 28> H       -0.156995   -1.792005   -2.102193
| 29> H        2.493970    1.031893   -1.188973
| 30> H        1.754916    1.016172    1.230092
| 31> H        2.303398   -1.383326   -2.385460
| 32> *
| 33>
| 34> %maxcore 5000
| 35>
| 36> %pal
| 37> nprocs = 24
| 38> end
| 39>
| 40>
| 41>                          ****END OF INPUT****

CARTESIAN COORDINATES (ANGSTROEM)
---------------------------------
  Re    -0.699337    0.269974   -0.016922
  C     -1.517494    1.171658    1.511937
  C     -2.128741    0.734814   -1.269556
  C      0.006415    1.979914   -0.520985
  Br    -2.293994   -1.692635    0.422377
  O      0.401983    3.017146   -0.812479
  O     -1.978437    1.683611    2.420736
  O     -2.925520    0.985618   -2.040062
  C      1.682445   -0.880018   -1.649716
  C      0.364751   -1.082540   -1.469297
  C      2.354559    0.058914   -0.699791
  C      3.755152   -0.401179   -0.311110
  O      4.391770   -1.216840   -0.916463
  O      4.190730    0.250058    0.766853
  C      1.438220    0.283372    0.494253
  O      0.848413   -0.807036    1.012308
  H      0.600901   -1.340620   -0.125835
  C      5.512413   -0.088930    1.195157
  H      5.700542    0.516294    2.077458
  H      5.571154   -1.149548    1.436871
  H      6.234349    0.138790    0.411497
  H     -0.156995   -1.792005   -2.102193
  H      2.493970    1.031893   -1.188973
  H      1.754916    1.016172    1.230092
  H      2.303398   -1.383326   -2.385460

 Total Charge           Charge          ....    0
 Multiplicity           Mult            ....    1
 Number of Electrons    NEL             ....  160
 Basis Dimension        Dim             ....  825

ORBITAL ENERGIES
----------------

  NO   OCC          E(Eh)            E(eV)
   0   2.0000    -485.809567    -13219.5504
   1   2.0000     -63.560819     -1729.5778
   2   2.0000     -57.183930     -1556.0538
   3   2.0000     -57.182663     -1556.0194
   4   2.0000     -57.182461     -1556.0139
   5   2.0000     -19.838905      -539.8441
   6   2.0000     -19.824332      -539.4475
   7   2.0000     -19.823210      -539.4170
   8   2.0000     -19.806128      -538.9522
   9   2.0000     -19.798501      -538.7446
  10   2.0000     -19.746556      -537.3311
  11   2.0000     -10.788388      -293.5670
  12   2.0000     -10.778814      -293.3065
  13   2.0000     -10.775956      -293.2287
  14   2.0000     -10.761883      -292.8457
  15   2.0000     -10.746827      -292.4360
  16   2.0000     -10.692850      -290.9672
  17   2.0000     -10.684746      -290.7467
  18   2.0000     -10.674558      -290.4695
  19   2.0000     -10.627068      -289.1772
  20   2.0000      -9.121175      -248.1998
  21   2.0000      -6.857503      -186.6021
  22   2.0000      -6.852917      -186.4773
  23   2.0000      -6.852215      -186.4583
  24   2.0000      -3.453614       -93.9776
  25   2.0000      -2.817689       -76.6732
  26   2.0000      -2.816348       -76.6367
  27   2.0000      -2.815673       -76.6183
  28   2.0000      -2.811370       -76.5013
  29   2.0000      -2.811364       -76.5011
  30   2.0000      -1.953333       -53.1529
  31   2.0000      -1.946763       -52.9741
  32   2.0000      -1.937347       -52.7179
  33   2.0000      -1.320992       -35.9460
  34   2.0000      -1.306806       -35.5600
  35   2.0000      -1.304530       -35.4981
  36   2.0000      -1.295931       -35.2641
  37   2.0000      -1.241605       -33.7858
  38   2.0000      -1.200646       -32.6712
  39   2.0000      -0.986353       -26.8400
  40   2.0000      -0.897097       -24.4113
  41   2.0000      -0.846432       -23.0326
  42   2.0000      -0.824305       -22.4305
  43   2.0000      -0.768302       -20.9066
  44   2.0000      -0.714962       -19.4551
  45   2.0000      -0.699709       -19.0400
  46   2.0000      -0.691016       -18.8035
  47   2.0000      -0.684506       -18.6263
  48   2.0000      -0.681374       -18.5411
  49   2.0000      -0.647519       -17.6199
  50   2.0000      -0.627507       -17.0753
  51   2.0000      -0.610406       -16.6100
  52   2.0000      -0.598335       -16.2815
  53   2.0000      -0.592020       -16.1097
  54   2.0000      -0.583453       -15.8766
  55   2.0000      -0.577047       -15.7023
  56   2.0000      -0.572012       -15.5652
  57   2.0000      -0.567636       -15.4462
  58   2.0000      -0.561548       -15.2805
  59   2.0000      -0.554843       -15.0981
  60   2.0000      -0.550885       -14.9903
  61   2.0000      -0.547387       -14.8952
  62   2.0000      -0.542329       -14.7575
  63   2.0000      -0.540205       -14.6997
  64   2.0000      -0.530117       -14.4252
  65   2.0000      -0.516251       -14.0479
  66   2.0000      -0.494757       -13.4630
  67   2.0000      -0.479130       -13.0378
  68   2.0000      -0.464313       -12.6346
  69   2.0000      -0.458346       -12.4722
  70   2.0000      -0.407341       -11.0843
  71   2.0000      -0.403228       -10.9724
  72   2.0000      -0.377176       -10.2635
  73   2.0000      -0.365547        -9.9470
  74   2.0000      -0.358310        -9.7501
  75   2.0000      -0.351416        -9.5625
  76   2.0000      -0.335098        -9.1185
  77   2.0000      -0.316053        -8.6002
  78   2.0000      -0.302444        -8.2299
  79   2.0000      -0.285527        -7.7696
  80   0.0000      -0.046670        -1.2699
  81   0.0000      -0.024083        -0.6553
  82   0.0000       0.005875         0.1599
  83   0.0000       0.017199         0.4680
  84   0.0000       0.022592         0.6148

MULLIKEN ATOMIC CHARGES
-----------------------
   0 Re:    0.585025
   1 C :    0.552974
   2 C :    0.473641
   3 C :   -0.052055
   4 Br:   -0.622388
   5 O :   -0.388260
   6 O :   -0.337269
   7 O :   -0.311255
   8 C :   -0.687291
   9 C :    0.122271
  10 C :    1.562919
  11 C :   -0.146289
  12 O :   -0.587628
  13 O :   -0.293386
  14 C :    0.234260
  15 O :   -0.628092
  16 H :    0.204700
  17 C :   -0.139799
  18 H :    0.082069
  19 H :    0.129415
  20 H :    0.129286
  21 H :   -0.053654
  22 H :    0.116350
  23 H :    0.112904
  24 H :   -0.058447
Sum of atomic charges:   -0.0000000

LOEWDIN ATOMIC CHARGES
----------------------
   0 Re:    0.609942
   1 C :   -0.233135
   2 C :   -0.267936
   3 C :   -0.246833
   4 Br:    0.141930
   5 O :    0.131625
   6 O :    0.127033
   7 O :    0.147853
   8 C :    0.059148
   9 C :    0.002202
  10 C :   -0.091945
  11 C :   -0.418786
  12 O :    0.123311
  13 O :    0.002618
  14 C :   -0.177996
  15 O :   -0.054446
  16 H :   -0.159593
  17 C :    0.183263
  18 H :    0.012021
  19 H :    0.015918
  20 H :    0.014535
  21 H :   -0.041777
  22 H :    0.059413
  23 H :    0.037828
  24 H :    0.023807

  Mayer bond orders larger than 0.100000
B(  0-Re,  1-C ) :   1.1798 B(  0-Re,  2-C ) :   1.0206 B(  0-Re,  3-C ) :   1.3123
B(  0-Re,  4-Br) :   0.3800 B(  0-Re,  8-C ) :   0.1343 B(  0-Re,  9-C ) :   0.4664
B(  0-Re, 14-C ) :   0.4720 B(  0-Re, 15-O ) :   0.5335 B(  0-Re, 16-H ) :   0.1325
B(  1-C ,  2-C ) :  -0.1378 B(  1-C ,  6-O ) :   2.1499 B(  2-C ,  7-O ) :   2.1676
B(  3-C ,  5-O ) :   2.0064 B(  3-C ,  8-C ) :  -0.1009 B(  3-C , 10-C ) :   0.1053
B(  3-C , 14-C ) :   0.2108 B(  8-C ,  9-C ) :   1.7417 B(  8-C , 10-C ) :   0.5119
B(  8-C , 11-C ) :   0.2467 B(  8-C , 16-H ) :   0.1726 B(  8-C , 24-H ) :   1.2460
B(  9-C , 10-C ) :  -0.1249 B(  9-C , 14-C ) :  -0.1133 B(  9-C , 16-H ) :   0.4548
B(  9-C , 21-H ) :   1.0894 B(  9-C , 24-H ) :  -0.1076 B( 10-C , 12-O ) :  -0.1120
B( 10-C , 14-C ) :   0.9972 B( 10-C , 22-H ) :   0.8504 B( 10-C , 24-H ) :  -0.1559
B( 11-C , 12-O ) :   1.7227 B( 11-C , 13-O ) :   0.9240 B( 11-C , 14-C ) :   0.2675
B( 13-O , 17-C ) :   0.7625 B( 14-C , 15-O ) :   0.7689 B( 14-C , 23-H ) :   0.9777
B( 15-O , 16-H ) :   0.3296 B( 17-C , 18-H ) :   1.0561 B( 17-C , 19-H ) :   0.9884
B( 17-C , 20-H ) :   0.9788

MP2 TOTAL ENERGY:    -3450.922603056 Eh
Dispersion correction           -0.032470566
FINAL SINGLE POINT ENERGY     -3450.955073621953

DIPOLE MOMENT
-------------
                                X             Y             Z
Electronic contribution:   -122.80812      29.16524       0.52727
Nuclear contribution   :    124.94821     -28.06424      -0.72382
                        -----------------------------------------
Total Dipole Moment    :      2.14009       1.10100      -0.19655
                        -----------------------------------------
Magnitude (a.u.)       :      2.41471
Magnitude (Debye)      :      6.13770

Rotational constants in cm-1:     0.017375     0.006623     0.006112
Rotational constants in MHz :   520.879987   198.539547   183.234187

                             ****ORCA TERMINATED NORMALLY****
TOTAL RUN TIME: 0 days 0 hours 1 minutes 34 seconds 139 msec
