                         Program Version 4.2.0 -  RELEASE  -
|  1> #
|  2> # TMB28_C1 ri-B2PLYP-D3BJ/Def2-TZVPPD
|  3> #
|  4> ! rijk ri-b2plyp d3bj def2-tzvppd def2/jk def2-tzvppd/c grid4 nofinalgrid
|  5>
|  6> *xyz 0 1
|  7> C       -0.405710    1.676464   -0.132905
|  8> C       -0.911585    0.669613    0.356254
|  9> C       -0.058307    2.983711   -0.650101
| 10> H       -0.949750    3.612259   -0.580916
| 11> H        0.745323    3.420879   -0.056180
| 12> H        0.255303    2.923577   -1.693087
| 13> C       -1.922079   -0.256189    0.903797
| 14> O       -2.980737   -0.448274   -0.040247
| 15> C       -3.644467    0.620195   -0.535863
| 16> O       -3.419291    1.755394   -0.218963
| 17> C       -1.315036   -1.659397    1.187254
| 18> O       -0.292489   -1.714090    1.813533
| 19> C       -2.070337   -2.858032    0.718520
| 20> H       -2.050973   -2.878590   -0.373534
| 21> H       -1.593281   -3.749478    1.117849
| 22> H       -3.118661   -2.810283    1.017394
| 23> C       -4.664667    0.177679   -1.534856
| 24> H       -5.268795    1.028888   -1.835351
| 25> H       -4.153929   -0.239550   -2.404894
| 26> H       -5.293840   -0.608504   -1.117133
| 27> C       -2.442836    0.266886    2.244835
| 28> H       -3.205737   -0.415249    2.624458
| 29> H       -1.614369    0.303689    2.950542
| 30> H       -2.869838    1.259004    2.124200
| 31> Au       1.189623    0.069390   -0.174295
| 32> Cl       0.186320   -1.092349   -1.885264
| 33> Cl       3.146088   -1.001725   -0.550079
| 34> Cl       2.155158    1.282412    1.507095
| 35> *
| 36>
| 37> %maxcore 5000
| 38>
| 39> %pal
| 40> nprocs = 24
| 41> end
| 42>
| 43>
| 44>                          ****END OF INPUT****

CARTESIAN COORDINATES (ANGSTROEM)
---------------------------------
  C     -0.405710    1.676464   -0.132905
  C     -0.911585    0.669613    0.356254
  C     -0.058307    2.983711   -0.650101
  H     -0.949750    3.612259   -0.580916
  H      0.745323    3.420879   -0.056180
  H      0.255303    2.923577   -1.693087
  C     -1.922079   -0.256189    0.903797
  O     -2.980737   -0.448274   -0.040247
  C     -3.644467    0.620195   -0.535863
  O     -3.419291    1.755394   -0.218963
  C     -1.315036   -1.659397    1.187254
  O     -0.292489   -1.714090    1.813533
  C     -2.070337   -2.858032    0.718520
  H     -2.050973   -2.878590   -0.373534
  H     -1.593281   -3.749478    1.117849
  H     -3.118661   -2.810283    1.017394
  C     -4.664667    0.177679   -1.534856
  H     -5.268795    1.028888   -1.835351
  H     -4.153929   -0.239550   -2.404894
  H     -5.293840   -0.608504   -1.117133
  C     -2.442836    0.266886    2.244835
  H     -3.205737   -0.415249    2.624458
  H     -1.614369    0.303689    2.950542
  H     -2.869838    1.259004    2.124200
  Au     1.189623    0.069390   -0.174295
  Cl     0.186320   -1.092349   -1.885264
  Cl     3.146088   -1.001725   -0.550079
  Cl     2.155158    1.282412    1.507095

 Total Charge           Charge          ....    0
 Multiplicity           Mult            ....    1
 Number of Electrons    NEL             ....  160
 Basis Dimension        Dim             ....  869

ORBITAL ENERGIES
----------------

  NO   OCC          E(Eh)            E(eV)
   0   2.0000    -102.884319     -2799.6246
   1   2.0000    -102.881081     -2799.5365
   2   2.0000    -102.878077     -2799.4548
   3   2.0000     -19.811554      -539.0998
   4   2.0000     -19.750120      -537.4281
   5   2.0000     -19.748348      -537.3799
   6   2.0000     -10.791721      -293.6577
   7   2.0000     -10.760356      -292.8042
   8   2.0000     -10.748713      -292.4873
   9   2.0000     -10.714819      -291.5651
  10   2.0000     -10.702409      -291.2274
  11   2.0000     -10.671709      -290.3920
  12   2.0000     -10.649789      -289.7955
  13   2.0000     -10.647176      -289.7244
  14   2.0000     -10.637923      -289.4726
  15   2.0000      -9.889382      -269.1038
  16   2.0000      -9.885978      -269.0112
  17   2.0000      -9.882733      -268.9228
  18   2.0000      -7.528282      -204.8550
  19   2.0000      -7.525083      -204.7679
  20   2.0000      -7.523820      -204.7335
  21   2.0000      -7.523491      -204.7246
  22   2.0000      -7.522114      -204.6871
  23   2.0000      -7.520251      -204.6364
  24   2.0000      -7.519978      -204.6290
  25   2.0000      -7.516907      -204.5454
  26   2.0000      -7.516437      -204.5326
  27   2.0000      -4.525210      -123.1372
  28   2.0000      -2.642885       -71.9165
  29   2.0000      -2.640300       -71.8462
  30   2.0000      -2.622365       -71.3582
  31   2.0000      -1.300251       -35.3816
  32   2.0000      -1.233695       -33.5705
  33   2.0000      -1.206203       -32.8225
  34   2.0000      -1.002632       -27.2830
  35   2.0000      -0.955699       -26.0059
  36   2.0000      -0.910531       -24.7768
  37   2.0000      -0.892013       -24.2729
  38   2.0000      -0.891691       -24.2642
  39   2.0000      -0.888987       -24.1906
  40   2.0000      -0.887126       -24.1399
  41   2.0000      -0.870019       -23.6744
  42   2.0000      -0.804107       -21.8809
  43   2.0000      -0.723486       -19.6871
  44   2.0000      -0.691464       -18.8157
  45   2.0000      -0.619860       -16.8672
  46   2.0000      -0.614832       -16.7304
  47   2.0000      -0.602164       -16.3857
  48   2.0000      -0.593594       -16.1525
  49   2.0000      -0.572468       -15.5777
  50   2.0000      -0.568120       -15.4593
  51   2.0000      -0.560489       -15.2517
  52   2.0000      -0.550714       -14.9857
  53   2.0000      -0.542934       -14.7740
  54   2.0000      -0.530663       -14.4401
  55   2.0000      -0.527327       -14.3493
  56   2.0000      -0.524895       -14.2831
  57   2.0000      -0.516859       -14.0645
  58   2.0000      -0.511258       -13.9120
  59   2.0000      -0.508287       -13.8312
  60   2.0000      -0.506581       -13.7848
  61   2.0000      -0.504865       -13.7381
  62   2.0000      -0.501162       -13.6373
  63   2.0000      -0.480576       -13.0771
  64   2.0000      -0.478285       -13.0148
  65   2.0000      -0.466458       -12.6930
  66   2.0000      -0.454011       -12.3543
  67   2.0000      -0.421053       -11.4574
  68   2.0000      -0.416858       -11.3433
  69   2.0000      -0.404624       -11.0104
  70   2.0000      -0.403219       -10.9721
  71   2.0000      -0.387481       -10.5439
  72   2.0000      -0.375264       -10.2115
  73   2.0000      -0.364404        -9.9159
  74   2.0000      -0.359220        -9.7749
  75   2.0000      -0.346289        -9.4230
  76   2.0000      -0.343128        -9.3370
  77   2.0000      -0.340797        -9.2736
  78   2.0000      -0.337880        -9.1942
  79   2.0000      -0.327784        -8.9194
  80   0.0000      -0.092308        -2.5118
  81   0.0000      -0.004793        -0.1304
  82   0.0000       0.006041         0.1644
  83   0.0000       0.011402         0.3103
  84   0.0000       0.024731         0.6730

MULLIKEN ATOMIC CHARGES
-----------------------
   0 C :    1.989874
   1 C :   -1.653790
   2 C :   -0.843511
   3 H :    0.135698
   4 H :    0.138450
   5 H :    0.140914
   6 C :    2.788531
   7 O :   -0.303266
   8 C :    0.732021
   9 O :   -0.559691
  10 C :    0.068961
  11 O :   -0.614693
  12 C :   -0.435096
  13 H :    0.095880
  14 H :    0.127599
  15 H :    0.130901
  16 C :   -0.557209
  17 H :    0.116936
  18 H :    0.096472
  19 H :    0.119869
  20 C :   -1.129904
  21 H :    0.155368
  22 H :    0.190906
  23 H :    0.186163
  24 Au:    0.272572
  25 Cl:   -0.508355
  26 Cl:   -0.380179
  27 Cl:   -0.501423
Sum of atomic charges:   -0.0000000

LOEWDIN ATOMIC CHARGES
----------------------
   0 C :   -0.152882
   1 C :   -0.101140
   2 C :    0.150750
   3 H :    0.013475
   4 H :   -0.014912
   5 H :    0.008033
   6 C :   -0.348232
   7 O :    0.018173
   8 C :   -0.432341
   9 O :    0.108055
  10 C :   -0.345861
  11 O :    0.070075
  12 C :    0.224607
  13 H :   -0.001957
  14 H :    0.008916
  15 H :    0.005470
  16 C :    0.249515
  17 H :    0.003887
  18 H :    0.011099
  19 H :    0.005931
  20 C :    0.245508
  21 H :    0.018012
  22 H :    0.017344
  23 H :    0.002038
  24 Au:    0.323629
  25 Cl:    0.004552
  26 Cl:   -0.082723
  27 Cl:   -0.009022

  Mayer bond orders larger than 0.100000
B(  0-C ,  2-C ) :   0.6497 B(  0-C ,  9-O ) :  -0.1817 B(  0-C , 10-C ) :  -0.1755
B(  0-C , 20-C ) :  -0.1146 B(  0-C , 24-Au) :  -0.3129 B(  0-C , 25-Cl) :  -0.4878
B(  0-C , 27-Cl) :   0.1677 B(  1-C ,  6-C ) :   0.7467 B(  1-C ,  7-O ) :   0.1630
B(  1-C , 10-C ) :   0.1572 B(  1-C , 20-C ) :   0.6138 B(  1-C , 24-Au) :   0.9174
B(  1-C , 25-Cl) :   0.1180 B(  1-C , 27-Cl) :  -0.4744 B(  2-C ,  3-H ) :   1.0627
B(  2-C ,  4-H ) :   0.9942 B(  2-C ,  5-H ) :   1.0221 B(  6-C ,  7-O ) :   0.2084
B(  6-C ,  8-C ) :  -0.1795 B(  6-C ,  9-O ) :   0.1075 B(  6-C , 10-C ) :   0.1071
B(  6-C , 11-O ) :  -0.1635 B(  6-C , 20-C ) :   0.1614 B(  6-C , 21-H ) :  -0.1291
B(  6-C , 23-H ) :  -0.1023 B(  6-C , 25-Cl) :   0.2167 B(  7-O ,  8-C ) :   1.0393
B(  8-C ,  9-O ) :   1.7099 B(  8-C , 16-C ) :   0.9077 B( 10-C , 11-O ) :   1.5835
B( 10-C , 12-C ) :   0.9492 B( 10-C , 24-Au) :  -0.2330 B( 12-C , 13-H ) :   0.9814
B( 12-C , 14-H ) :   1.0719 B( 12-C , 15-H ) :   0.9541 B( 16-C , 17-H ) :   1.0568
B( 16-C , 18-H ) :   0.9987 B( 16-C , 19-H ) :   0.9935 B( 20-C , 21-H ) :   1.0446
B( 20-C , 22-H ) :   1.0104 B( 20-C , 23-H ) :   0.9645 B( 24-Au, 25-Cl) :   0.9149
B( 24-Au, 26-Cl) :   0.7353 B( 24-Au, 27-Cl) :   0.8837 B( 25-Cl, 27-Cl) :   0.1276

MP2 TOTAL ENERGY:    -2091.502946005 Eh
Dispersion correction           -0.035680756
FINAL SINGLE POINT ENERGY     -2091.538626760646

DIPOLE MOMENT
-------------
                                X             Y             Z
Electronic contribution:    184.66206       8.42488     -26.31102
Nuclear contribution   :   -188.12551      -7.68230      26.09317
                        -----------------------------------------
Total Dipole Moment    :     -3.46345       0.74258      -0.21785
                        -----------------------------------------
Magnitude (a.u.)       :      3.54886
Magnitude (Debye)      :      9.02048

Rotational constants in cm-1:     0.016324     0.007365     0.006921
Rotational constants in MHz :   489.388468   220.811279   207.480820

                             ****ORCA TERMINATED NORMALLY****
TOTAL RUN TIME: 0 days 0 hours 1 minutes 54 seconds 186 msec
