                         Program Version 4.2.0 -  RELEASE  -
|  1> #
|  2> # TMB31_T1 ri-B2PLYP-D3BJ/Def2-TZVPPD
|  3> #
|  4> ! rijk ri-b2plyp d3bj def2-tzvppd def2/jk def2-tzvppd/c grid4 nofinalgrid
|  5>
|  6> *xyz 1 1
|  7> Ir       0.050361    0.056236   -0.150076
|  8> C        0.978842   -1.302743   -1.517387
|  9> C       -1.864665    1.028637    0.563211
| 10> C       -1.426558    0.128925    1.555248
| 11> C       -1.389999   -1.187568    0.972706
| 12> C       -1.852948   -1.076424   -0.368776
| 13> C       -2.115280    0.291316   -0.640524
| 14> H        0.395138   -1.326753   -2.435403
| 15> H        2.003015   -1.039631   -1.784042
| 16> H        0.978935   -2.299217   -1.075482
| 17> H       -1.949414   -1.889112   -1.072248
| 18> H       -2.488115    0.695321   -1.568578
| 19> H       -1.982151    2.094988    0.682898
| 20> H       -1.179131    0.379256    2.575311
| 21> H       -1.144965   -2.105263    1.484015
| 22> C        0.981659    2.033847   -0.552795
| 23> H        0.609290    0.819803   -1.428069
| 24> H        0.362656    2.677374   -1.174650
| 25> H        1.003724    2.445002    0.454509
| 26> H        1.994491    2.026607   -0.953376
| 27> P        1.998129   -0.331589    0.938590
| 28> H        2.205383    0.285042    2.190624
| 29> H        2.302734   -1.672090    1.247762
| 30> H        3.172367    0.056392    0.263634
| 31> *
| 32>
| 33> %maxcore 5000
| 34>
| 35> %pal
| 36> nprocs = 24
| 37> end
| 38>
| 39>
| 40>                          ****END OF INPUT****

CARTESIAN COORDINATES (ANGSTROEM)
---------------------------------
  Ir     0.050361    0.056236   -0.150076
  C      0.978842   -1.302743   -1.517387
  C     -1.864665    1.028637    0.563211
  C     -1.426558    0.128925    1.555248
  C     -1.389999   -1.187568    0.972706
  C     -1.852948   -1.076424   -0.368776
  C     -2.115280    0.291316   -0.640524
  H      0.395138   -1.326753   -2.435403
  H      2.003015   -1.039631   -1.784042
  H      0.978935   -2.299217   -1.075482
  H     -1.949414   -1.889112   -1.072248
  H     -2.488115    0.695321   -1.568578
  H     -1.982151    2.094988    0.682898
  H     -1.179131    0.379256    2.575311
  H     -1.144965   -2.105263    1.484015
  C      0.981659    2.033847   -0.552795
  H      0.609290    0.819803   -1.428069
  H      0.362656    2.677374   -1.174650
  H      1.003724    2.445002    0.454509
  H      1.994491    2.026607   -0.953376
  P      1.998129   -0.331589    0.938590
  H      2.205383    0.285042    2.190624
  H      2.302734   -1.672090    1.247762
  H      3.172367    0.056392    0.263634

 Total Charge           Charge          ....    1
 Multiplicity           Mult            ....    1
 Number of Electrons    NEL             ....   88
 Basis Dimension        Dim             ....  621

ORBITAL ENERGIES
----------------

  NO   OCC          E(Eh)            E(eV)
   0   2.0000     -78.465738     -2135.1613
   1   2.0000     -10.805480      -294.0321
   2   2.0000     -10.803655      -293.9824
   3   2.0000     -10.802744      -293.9576
   4   2.0000     -10.800467      -293.8956
   5   2.0000     -10.798785      -293.8499
   6   2.0000     -10.785922      -293.4999
   7   2.0000     -10.748546      -292.4828
   8   2.0000      -7.134656      -194.1439
   9   2.0000      -5.185890      -141.1152
  10   2.0000      -5.185818      -141.1133
  11   2.0000      -5.184064      -141.0656
  12   2.0000      -4.105929      -111.7280
  13   2.0000      -2.390268       -65.0425
  14   2.0000      -2.376953       -64.6802
  15   2.0000      -2.369763       -64.4845
  16   2.0000      -1.191908       -32.4335
  17   2.0000      -1.002372       -27.2759
  18   2.0000      -0.996338       -27.1117
  19   2.0000      -0.961233       -26.1565
  20   2.0000      -0.930505       -25.3203
  21   2.0000      -0.908799       -24.7297
  22   2.0000      -0.803340       -21.8600
  23   2.0000      -0.801822       -21.8187
  24   2.0000      -0.784575       -21.3494
  25   2.0000      -0.691232       -18.8094
  26   2.0000      -0.663228       -18.0474
  27   2.0000      -0.656826       -17.8732
  28   2.0000      -0.653956       -17.7950
  29   2.0000      -0.648283       -17.6407
  30   2.0000      -0.639721       -17.4077
  31   2.0000      -0.619323       -16.8526
  32   2.0000      -0.617619       -16.8063
  33   2.0000      -0.616511       -16.7761
  34   2.0000      -0.601404       -16.3650
  35   2.0000      -0.599226       -16.3058
  36   2.0000      -0.586500       -15.9595
  37   2.0000      -0.575645       -15.6641
  38   2.0000      -0.543841       -14.7987
  39   2.0000      -0.509978       -13.8772
  40   2.0000      -0.496794       -13.5184
  41   2.0000      -0.482853       -13.1391
  42   2.0000      -0.459865       -12.5136
  43   2.0000      -0.433661       -11.8005
  44   0.0000      -0.133897        -3.6435
  45   0.0000      -0.112516        -3.0617
  46   0.0000      -0.105917        -2.8821
  47   0.0000      -0.094545        -2.5727
  48   0.0000      -0.080545        -2.1917

MULLIKEN ATOMIC CHARGES
-----------------------
   0 Ir:    0.745844
   1 C :   -0.646815
   2 C :   -0.082769
   3 C :    0.015296
   4 C :    0.271300
   5 C :   -0.251203
   6 C :    0.107711
   7 H :    0.132388
   8 H :    0.194718
   9 H :    0.127603
  10 H :    0.039768
  11 H :    0.014271
  12 H :    0.044442
  13 H :    0.037231
  14 H :    0.068567
  15 C :   -0.543443
  16 H :    0.054421
  17 H :    0.126190
  18 H :    0.142528
  19 H :    0.183255
  20 P :    0.083062
  21 H :    0.046001
  22 H :    0.050247
  23 H :    0.039386
Sum of atomic charges:    1.0000000

LOEWDIN ATOMIC CHARGES
----------------------
   0 Ir:    1.030742
   1 C :   -0.000134
   2 C :   -0.050681
   3 C :   -0.062690
   4 C :   -0.080081
   5 C :   -0.058754
   6 C :   -0.048494
   7 H :   -0.077147
   8 H :   -0.091803
   9 H :   -0.083408
  10 H :    0.028211
  11 H :    0.022564
  12 H :    0.025485
  13 H :    0.018428
  14 H :    0.018366
  15 C :    0.090535
  16 H :   -0.094222
  17 H :   -0.050921
  18 H :   -0.069055
  19 H :   -0.062496
  20 P :    0.936572
  21 H :   -0.120851
  22 H :   -0.112557
  23 H :   -0.107611

  Mayer bond orders larger than 0.100000
B(  0-Ir,  1-C ) :   0.5770 B(  0-Ir,  2-C ) :   0.4151 B(  0-Ir,  3-C ) :   0.4133
B(  0-Ir,  4-C ) :   0.4550 B(  0-Ir,  5-C ) :   0.4509 B(  0-Ir,  6-C ) :   0.3955
B(  0-Ir, 15-C ) :   0.3968 B(  0-Ir, 16-H ) :   0.5472 B(  0-Ir, 20-P ) :   0.8462
B(  1-C ,  5-C ) :   0.1100 B(  1-C ,  7-H ) :   1.0158 B(  1-C ,  8-H ) :   0.9648
B(  1-C ,  9-H ) :   1.0363 B(  2-C ,  3-C ) :   1.3133 B(  2-C ,  4-C ) :  -0.2564
B(  2-C ,  6-C ) :   1.0960 B(  2-C , 12-H ) :   0.9794 B(  2-C , 15-C ) :   0.1153
B(  3-C ,  4-C ) :   1.0597 B(  3-C ,  5-C ) :  -0.1405 B(  3-C ,  6-C ) :  -0.2183
B(  3-C , 13-H ) :   0.9976 B(  4-C ,  5-C ) :   1.1276 B(  4-C ,  6-C ) :  -0.2551
B(  4-C , 14-H ) :   0.9539 B(  5-C ,  6-C ) :   1.2603 B(  5-C , 10-H ) :   0.9701
B(  6-C , 11-H ) :   0.9718 B( 15-C , 16-H ) :   0.3001 B( 15-C , 17-H ) :   1.0305
B( 15-C , 18-H ) :   0.9952 B( 15-C , 19-H ) :   0.9772 B( 20-P , 21-H ) :   0.9636
B( 20-P , 22-H ) :   0.9668 B( 20-P , 23-H ) :   0.9830

MP2 TOTAL ENERGY:     -720.863632611 Eh
Dispersion correction           -0.027314289
FINAL SINGLE POINT ENERGY      -720.890946899363

DIPOLE MOMENT
-------------
                                X             Y             Z
Electronic contribution:      4.81161       6.86529     -17.53932
Nuclear contribution   :     -4.43915      -6.73459      18.18954
                        -----------------------------------------
Total Dipole Moment    :      0.37247       0.13070       0.65022
                        -----------------------------------------
Magnitude (a.u.)       :      0.76066
Magnitude (Debye)      :      1.93344

Rotational constants in cm-1:     0.054508     0.031967     0.031168
Rotational constants in MHz :  1634.105298   958.356108   934.407674

                             ****ORCA TERMINATED NORMALLY****
TOTAL RUN TIME: 0 days 0 hours 0 minutes 56 seconds 406 msec
