                         Program Version 4.2.0 -  RELEASE  -
|  1> #
|  2> # TMB31_C1 ri-B2PLYP-D3BJ/Def2-TZVPPD
|  3> #
|  4> ! rijk ri-b2plyp d3bj def2-tzvppd def2/jk def2-tzvppd/c grid4 nofinalgrid
|  5>
|  6> *xyz 1 1
|  7> Ir      -0.040708    0.096324    0.064455
|  8> C       -0.971708    0.418734    1.931461
|  9> C        1.819460    0.364204   -1.190947
| 10> C        1.490903   -0.994938   -1.162590
| 11> C        1.450197   -1.406167    0.225985
| 12> C        1.875844   -0.290195    1.023097
| 13> C        2.052625    0.814608    0.164170
| 14> H       -0.394638    1.150210    2.498372
| 15> H       -1.993156    0.794195    1.837094
| 16> H       -1.008781   -0.505981    2.508304
| 17> H        1.977900   -0.288415    2.097324
| 18> H        2.352296    1.808383    0.458691
| 19> H        1.885000    0.981073   -2.074563
| 20> H        1.275763   -1.618283   -2.016436
| 21> H        1.275639   -2.406893    0.589421
| 22> C       -1.335861    2.101294   -0.927849
| 23> H       -0.822201    1.778454    0.045587
| 24> H       -0.969200    3.125001   -0.997930
| 25> H       -1.110952    1.579089   -1.850904
| 26> H       -2.401764    2.084149   -0.716661
| 27> P       -1.870306   -1.156932   -0.405763
| 28> H       -1.625569   -2.441008   -0.924735
| 29> H       -2.747711   -1.466666    0.650785
| 30> H       -2.792266   -0.681495   -1.360892
| 31> *
| 32>
| 33> %maxcore 5000
| 34>
| 35> %pal
| 36> nprocs = 24
| 37> end
| 38>
| 39>
| 40>                          ****END OF INPUT****

CARTESIAN COORDINATES (ANGSTROEM)
---------------------------------
  Ir    -0.040708    0.096324    0.064455
  C     -0.971708    0.418734    1.931461
  C      1.819460    0.364204   -1.190947
  C      1.490903   -0.994938   -1.162590
  C      1.450197   -1.406167    0.225985
  C      1.875844   -0.290195    1.023097
  C      2.052625    0.814608    0.164170
  H     -0.394638    1.150210    2.498372
  H     -1.993156    0.794195    1.837094
  H     -1.008781   -0.505981    2.508304
  H      1.977900   -0.288415    2.097324
  H      2.352296    1.808383    0.458691
  H      1.885000    0.981073   -2.074563
  H      1.275763   -1.618283   -2.016436
  H      1.275639   -2.406893    0.589421
  C     -1.335861    2.101294   -0.927849
  H     -0.822201    1.778454    0.045587
  H     -0.969200    3.125001   -0.997930
  H     -1.110952    1.579089   -1.850904
  H     -2.401764    2.084149   -0.716661
  P     -1.870306   -1.156932   -0.405763
  H     -1.625569   -2.441008   -0.924735
  H     -2.747711   -1.466666    0.650785
  H     -2.792266   -0.681495   -1.360892

 Total Charge           Charge          ....    1
 Multiplicity           Mult            ....    1
 Number of Electrons    NEL             ....   88
 Basis Dimension        Dim             ....  621

ORBITAL ENERGIES
----------------

  NO   OCC          E(Eh)            E(eV)
   0   2.0000     -78.456974     -2134.9228
   1   2.0000     -10.810026      -294.1558
   2   2.0000     -10.808477      -294.1136
   3   2.0000     -10.805579      -294.0348
   4   2.0000     -10.804229      -293.9980
   5   2.0000     -10.800508      -293.8968
   6   2.0000     -10.775947      -293.2284
   7   2.0000     -10.729539      -291.9656
   8   2.0000      -7.126506      -193.9221
   9   2.0000      -5.177813      -140.8955
  10   2.0000      -5.177598      -140.8896
  11   2.0000      -5.175818      -140.8412
  12   2.0000      -4.094346      -111.4128
  13   2.0000      -2.382304       -64.8258
  14   2.0000      -2.365506       -64.3687
  15   2.0000      -2.356812       -64.1321
  16   2.0000      -1.193399       -32.4740
  17   2.0000      -1.007656       -27.4197
  18   2.0000      -0.997020       -27.1303
  19   2.0000      -0.978637       -26.6301
  20   2.0000      -0.923241       -25.1227
  21   2.0000      -0.901003       -24.5175
  22   2.0000      -0.806326       -21.9412
  23   2.0000      -0.804095       -21.8805
  24   2.0000      -0.786961       -21.4143
  25   2.0000      -0.679942       -18.5022
  26   2.0000      -0.663077       -18.0433
  27   2.0000      -0.653015       -17.7695
  28   2.0000      -0.650287       -17.6952
  29   2.0000      -0.643529       -17.5113
  30   2.0000      -0.637001       -17.3337
  31   2.0000      -0.625035       -17.0081
  32   2.0000      -0.620840       -16.8939
  33   2.0000      -0.619463       -16.8565
  34   2.0000      -0.614554       -16.7229
  35   2.0000      -0.589411       -16.0387
  36   2.0000      -0.585015       -15.9191
  37   2.0000      -0.574268       -15.6266
  38   2.0000      -0.536668       -14.6035
  39   2.0000      -0.504340       -13.7238
  40   2.0000      -0.498123       -13.5546
  41   2.0000      -0.477229       -12.9861
  42   2.0000      -0.455919       -12.4062
  43   2.0000      -0.424999       -11.5648
  44   0.0000      -0.157799        -4.2939
  45   0.0000      -0.111828        -3.0430
  46   0.0000      -0.100807        -2.7431
  47   0.0000      -0.085531        -2.3274
  48   0.0000      -0.081931        -2.2294

MULLIKEN ATOMIC CHARGES
-----------------------
   0 Ir:    0.650925
   1 C :   -0.646422
   2 C :   -0.008095
   3 C :   -0.114311
   4 C :    0.432436
   5 C :   -0.385172
   6 C :    0.118005
   7 H :    0.154951
   8 H :    0.160366
   9 H :    0.117628
  10 H :    0.027014
  11 H :    0.027317
  12 H :    0.050538
  13 H :    0.042305
  14 H :    0.087884
  15 C :   -0.488127
  16 H :    0.084199
  17 H :    0.108144
  18 H :    0.167571
  19 H :    0.148231
  20 P :    0.143251
  21 H :    0.036274
  22 H :    0.046072
  23 H :    0.039018
Sum of atomic charges:    1.0000000

LOEWDIN ATOMIC CHARGES
----------------------
   0 Ir:    0.935692
   1 C :   -0.026941
   2 C :   -0.046229
   3 C :   -0.058768
   4 C :   -0.098539
   5 C :   -0.053448
   6 C :   -0.046662
   7 H :   -0.082276
   8 H :   -0.095562
   9 H :   -0.087946
  10 H :    0.030136
  11 H :    0.022618
  12 H :    0.023388
  13 H :    0.017089
  14 H :    0.019180
  15 C :    0.254886
  16 H :   -0.144461
  17 H :   -0.019002
  18 H :   -0.059929
  19 H :   -0.030633
  20 P :    0.929985
  21 H :   -0.131863
  22 H :   -0.120303
  23 H :   -0.130410

  Mayer bond orders larger than 0.100000
B(  0-Ir,  1-C ) :   0.5950 B(  0-Ir,  2-C ) :   0.4423 B(  0-Ir,  3-C ) :   0.4040
B(  0-Ir,  4-C ) :   0.5050 B(  0-Ir,  5-C ) :   0.5612 B(  0-Ir,  6-C ) :   0.3824
B(  0-Ir, 15-C ) :   0.1062 B(  0-Ir, 16-H ) :   0.1187 B(  0-Ir, 20-P ) :   0.9431
B(  1-C ,  5-C ) :   0.1242 B(  1-C ,  7-H ) :   0.9994 B(  1-C ,  8-H ) :   0.9798
B(  1-C ,  9-H ) :   1.0400 B(  2-C ,  3-C ) :   1.3645 B(  2-C ,  4-C ) :  -0.2762
B(  2-C ,  6-C ) :   1.0204 B(  2-C , 12-H ) :   0.9799 B(  3-C ,  4-C ) :   1.0096
B(  3-C ,  6-C ) :  -0.2408 B(  3-C , 13-H ) :   1.0108 B(  4-C ,  5-C ) :   0.9666
B(  4-C ,  6-C ) :  -0.2741 B(  4-C , 14-H ) :   0.9375 B(  5-C ,  6-C ) :   1.3002
B(  5-C , 10-H ) :   0.9666 B(  6-C , 11-H ) :   0.9832 B( 15-C , 16-H ) :   0.8426
B( 15-C , 17-H ) :   1.0468 B( 15-C , 18-H ) :   0.9525 B( 15-C , 19-H ) :   0.9983
B( 20-P , 21-H ) :   0.9604 B( 20-P , 22-H ) :   0.9578 B( 20-P , 23-H ) :   0.9573

MP2 TOTAL ENERGY:     -720.879198470 Eh
Dispersion correction           -0.026582645
FINAL SINGLE POINT ENERGY      -720.905781115780

DIPOLE MOMENT
-------------
                                X             Y             Z
Electronic contribution:     -2.91412      10.00870       7.24885
Nuclear contribution   :      2.66689     -10.24599      -8.00272
                        -----------------------------------------
Total Dipole Moment    :     -0.24723      -0.23729      -0.75387
                        -----------------------------------------
Magnitude (a.u.)       :      0.82810
Magnitude (Debye)      :      2.10487

Rotational constants in cm-1:     0.050543     0.032436     0.029954
Rotational constants in MHz :  1515.232111   972.406510   898.012536

                             ****ORCA TERMINATED NORMALLY****
TOTAL RUN TIME: 0 days 0 hours 0 minutes 55 seconds 828 msec
