                         Program Version 4.2.0 -  RELEASE  -
|  1> #
|  2> # TMD08_V ri-B2PLYP-D3BJ/Def2-TZVPPD
|  3> #
|  4> ! rijk ri-b2plyp d3bj def2-tzvppd def2/jk def2-tzvppd/c grid4 nofinalgrid
|  5>
|  6> *xyz 0 4
|  7> V        0.000000    0.000000    0.000000
|  8> *
|  9>
| 10> %maxcore 5000
| 11>
| 12> %pal
| 13> nprocs = 24
| 14> end
| 15>
| 16>
| 17>                          ****END OF INPUT****

CARTESIAN COORDINATES (ANGSTROEM)
---------------------------------
  V      0.000000    0.000000    0.000000

 Total Charge           Charge          ....    0
 Multiplicity           Mult            ....    4
 Number of Electrons    NEL             ....   23
 Basis Dimension        Dim             ....   67

ORBITAL ENERGIES
----------------
                 SPIN UP ORBITALS
  NO   OCC          E(Eh)            E(eV)
   0   1.0000    -198.831896     -5410.4910
   1   1.0000     -22.957007      -624.6919
   2   1.0000     -19.310194      -525.4571
   3   1.0000     -19.310183      -525.4568
   4   1.0000     -19.310172      -525.4565
   5   1.0000      -2.948946       -80.2449
   6   1.0000      -1.909188       -51.9517
   7   1.0000      -1.909158       -51.9508
   8   1.0000      -1.909121       -51.9498
   9   1.0000      -0.379949       -10.3389
  10   1.0000      -0.379902       -10.3377
  11   1.0000      -0.379882       -10.3371
  12   1.0000      -0.215690        -5.8692
  13   0.0000      -0.014854        -0.4042
  14   0.0000      -0.014821        -0.4033
  15   0.0000      -0.010831        -0.2947
  16   0.0000      -0.010801        -0.2939
  17   0.0000      -0.010773        -0.2931

                 SPIN DOWN ORBITALS
  NO   OCC          E(Eh)            E(eV)
   0   1.0000    -198.831047     -5410.4678
   1   1.0000     -22.909826      -623.4081
   2   1.0000     -19.266459      -524.2670
   3   1.0000     -19.266429      -524.2662
   4   1.0000     -19.266412      -524.2657
   5   1.0000      -2.795077       -76.0579
   6   1.0000      -1.732209       -47.1358
   7   1.0000      -1.732131       -47.1337
   8   1.0000      -1.732090       -47.1326
   9   1.0000      -0.194796        -5.3007
  10   0.0000      -0.005609        -0.1526
  11   0.0000      -0.005575        -0.1517
  12   0.0000      -0.005537        -0.1507
  13   0.0000       0.022807         0.6206
  14   0.0000       0.022852         0.6218

MULLIKEN ATOMIC CHARGES AND SPIN POPULATIONS
--------------------------------------------
   0 V :   -0.000000    3.000000
Sum of atomic charges         :   -0.0000000

LOEWDIN ATOMIC CHARGES AND SPIN POPULATIONS
-------------------------------------------
   0 V :   -0.000000    3.000000

MP2 TOTAL ENERGY:     -943.725567732 Eh
Dispersion correction            0.000000000
FINAL SINGLE POINT ENERGY      -943.725567731903

DIPOLE MOMENT
-------------
                                X             Y             Z
Electronic contribution:      0.00000       0.00000       0.00000
Nuclear contribution   :      0.00000       0.00000       0.00000
                        -----------------------------------------
Total Dipole Moment    :      0.00000       0.00000       0.00000
                        -----------------------------------------
Magnitude (a.u.)       :      0.00000
Magnitude (Debye)      :      0.00000

Rotational constants in cm-1:     0.000000     0.000000     0.000000
Rotational constants in MHz :     0.000000     0.000000     0.000000

                             ****ORCA TERMINATED NORMALLY****
TOTAL RUN TIME: 0 days 0 hours 0 minutes 13 seconds 187 msec
