                         Program Version 4.2.0 -  RELEASE  -
|  1> #
|  2> # TMD09_Cr ri-B2PLYP-D3BJ/Def2-TZVPPD
|  3> #
|  4> ! rijk ri-b2plyp d3bj def2-tzvppd def2/jk def2-tzvppd/c grid4 nofinalgrid
|  5>
|  6> *xyz 0 7
|  7> Cr       0.000000    0.000000    0.000000
|  8> *
|  9>
| 10> %maxcore 5000
| 11>
| 12> %pal
| 13> nprocs = 24
| 14> end
| 15>
| 16>
| 17>                          ****END OF INPUT****

CARTESIAN COORDINATES (ANGSTROEM)
---------------------------------
  Cr     0.000000    0.000000    0.000000

 Total Charge           Charge          ....    0
 Multiplicity           Mult            ....    7
 Number of Electrons    NEL             ....   24
 Basis Dimension        Dim             ....   67

ORBITAL ENERGIES
----------------
                 SPIN UP ORBITALS
  NO   OCC          E(Eh)            E(eV)
   0   1.0000    -217.614285     -5921.5857
   1   1.0000     -25.283227      -687.9916
   2   1.0000     -21.421552      -582.9101
   3   1.0000     -21.421552      -582.9101
   4   1.0000     -21.421552      -582.9101
   5   1.0000      -3.097299       -84.2818
   6   1.0000      -1.989121       -54.1267
   7   1.0000      -1.989121       -54.1267
   8   1.0000      -1.989121       -54.1267
   9   1.0000      -0.256684        -6.9847
  10   1.0000      -0.256684        -6.9847
  11   1.0000      -0.256684        -6.9847
  12   1.0000      -0.256684        -6.9847
  13   1.0000      -0.256684        -6.9847
  14   1.0000      -0.191122        -5.2007
  15   0.0000       0.000938         0.0255
  16   0.0000       0.000938         0.0255
  17   0.0000       0.000938         0.0255
  18   0.0000       0.102607         2.7921
  19   0.0000       0.102607         2.7921

                 SPIN DOWN ORBITALS
  NO   OCC          E(Eh)            E(eV)
   0   1.0000    -217.611753     -5921.5168
   1   1.0000     -25.203220      -685.8145
   2   1.0000     -21.348883      -580.9327
   3   1.0000     -21.348883      -580.9327
   4   1.0000     -21.348883      -580.9327
   5   1.0000      -2.844673       -77.4075
   6   1.0000      -1.701083       -46.2888
   7   1.0000      -1.701083       -46.2888
   8   1.0000      -1.701083       -46.2888
   9   0.0000      -0.029961        -0.8153
  10   0.0000       0.027613         0.7514
  11   0.0000       0.027613         0.7514
  12   0.0000       0.027613         0.7514
  13   0.0000       0.115736         3.1493

MULLIKEN ATOMIC CHARGES AND SPIN POPULATIONS
--------------------------------------------
   0 Cr:    0.000000    6.000000
Sum of atomic charges         :    0.0000000

LOEWDIN ATOMIC CHARGES AND SPIN POPULATIONS
-------------------------------------------
   0 Cr:    0.000000    6.000000

MP2 TOTAL ENERGY:    -1044.252289691 Eh
Dispersion correction            0.000000000
FINAL SINGLE POINT ENERGY     -1044.252289691249

DIPOLE MOMENT
-------------
                                X             Y             Z
Electronic contribution:      0.00000       0.00000      -0.00000
Nuclear contribution   :      0.00000       0.00000       0.00000
                        -----------------------------------------
Total Dipole Moment    :      0.00000       0.00000      -0.00000
                        -----------------------------------------
Magnitude (a.u.)       :      0.00000
Magnitude (Debye)      :      0.00000

Rotational constants in cm-1:     0.000000     0.000000     0.000000
Rotational constants in MHz :     0.000000     0.000000     0.000000

                             ****ORCA TERMINATED NORMALLY****
TOTAL RUN TIME: 0 days 0 hours 0 minutes 3 seconds 424 msec
