                         Program Version 4.2.0 -  RELEASE  -
|  1> #
|  2> # TMD07_Ti ri-B2PLYP-D3BJ/Def2-TZVPPD
|  3> #
|  4> ! rijk ri-b2plyp d3bj def2-tzvppd def2/jk def2-tzvppd/c grid4 nofinalgrid
|  5>
|  6> *xyz 0 3
|  7> Ti       0.000000    0.000000    0.000000
|  8> *
|  9>
| 10> %maxcore 5000
| 11>
| 12> %pal
| 13> nprocs = 24
| 14> end
| 15>
| 16>
| 17>                          ****END OF INPUT****

CARTESIAN COORDINATES (ANGSTROEM)
---------------------------------
  Ti     0.000000    0.000000    0.000000

 Total Charge           Charge          ....    0
 Multiplicity           Mult            ....    3
 Number of Electrons    NEL             ....   22
 Basis Dimension        Dim             ....   67

ORBITAL ENERGIES
----------------
                 SPIN UP ORBITALS
  NO   OCC          E(Eh)            E(eV)
   0   1.0000    -180.724163     -4917.7545
   1   1.0000     -20.540912      -558.9466
   2   1.0000     -17.109764      -465.5803
   3   1.0000     -17.109750      -465.5800
   4   1.0000     -17.109746      -465.5798
   5   1.0000      -2.631376       -71.6034
   6   1.0000      -1.671136       -45.4739
   7   1.0000      -1.671131       -45.4738
   8   1.0000      -1.671107       -45.4731
   9   1.0000      -0.326646        -8.8885
  10   1.0000      -0.326641        -8.8884
  11   1.0000      -0.203226        -5.5301
  12   0.0000      -0.011869        -0.3230
  13   0.0000      -0.011855        -0.3226
  14   0.0000      -0.011845        -0.3223
  15   0.0000       0.000968         0.0263
  16   0.0000       0.001013         0.0276

                 SPIN DOWN ORBITALS
  NO   OCC          E(Eh)            E(eV)
   0   1.0000    -180.723795     -4917.7445
   1   1.0000     -20.514959      -558.2404
   2   1.0000     -17.085559      -464.9217
   3   1.0000     -17.085514      -464.9205
   4   1.0000     -17.085484      -464.9197
   5   1.0000      -2.538060       -69.0641
   6   1.0000      -1.563295       -42.5394
   7   1.0000      -1.563184       -42.5364
   8   1.0000      -1.563098       -42.5340
   9   1.0000      -0.188541        -5.1305
  10   0.0000      -0.008058        -0.2193
  11   0.0000      -0.008031        -0.2185
  12   0.0000      -0.007997        -0.2176
  13   0.0000       0.022273         0.6061
  14   0.0000       0.022310         0.6071

MULLIKEN ATOMIC CHARGES AND SPIN POPULATIONS
--------------------------------------------
   0 Ti:   -0.000000    2.000000
Sum of atomic charges         :   -0.0000000

LOEWDIN ATOMIC CHARGES AND SPIN POPULATIONS
-------------------------------------------
   0 Ti:    0.000000    2.000000

MP2 TOTAL ENERGY:     -849.186206364 Eh
Dispersion correction            0.000000000
FINAL SINGLE POINT ENERGY      -849.186206364038

DIPOLE MOMENT
-------------
                                X             Y             Z
Electronic contribution:      0.00000      -0.00000       0.00000
Nuclear contribution   :      0.00000       0.00000       0.00000
                        -----------------------------------------
Total Dipole Moment    :      0.00000      -0.00000       0.00000
                        -----------------------------------------
Magnitude (a.u.)       :      0.00000
Magnitude (Debye)      :      0.00000

Rotational constants in cm-1:     0.000000     0.000000     0.000000
Rotational constants in MHz :     0.000000     0.000000     0.000000

                             ****ORCA TERMINATED NORMALLY****
TOTAL RUN TIME: 0 days 0 hours 0 minutes 5 seconds 12 msec
