                         Program Version 4.2.0 -  RELEASE  -
|  1> #
|  2> # TMD06_Br ri-B2PLYP-D3BJ/Def2-TZVPPD
|  3> #
|  4> ! rijk ri-b2plyp d3bj def2-tzvppd def2/jk def2-tzvppd/c grid4 nofinalgrid
|  5>
|  6> *xyz 0 2
|  7> Br       0.000000    0.000000    0.000000
|  8> *
|  9>
| 10> %maxcore 5000
| 11>
| 12> %pal
| 13> nprocs = 24
| 14> end
| 15>
| 16>
| 17>                          ****END OF INPUT****

CARTESIAN COORDINATES (ANGSTROEM)
---------------------------------
  Br     0.000000    0.000000    0.000000

 Total Charge           Charge          ....    0
 Multiplicity           Mult            ....    2
 Number of Electrons    NEL             ....   35
 Basis Dimension        Dim             ....   57

ORBITAL ENERGIES
----------------
                 SPIN UP ORBITALS
  NO   OCC          E(Eh)            E(eV)
   0   1.0000    -485.894643    -13221.8654
   1   1.0000     -63.645130     -1731.8720
   2   1.0000     -57.273163     -1558.4820
   3   1.0000     -57.265491     -1558.2732
   4   1.0000     -57.265491     -1558.2732
   5   1.0000      -9.207247      -250.5419
   6   1.0000      -6.955475      -189.2681
   7   1.0000      -6.933273      -188.6640
   8   1.0000      -6.933273      -188.6640
   9   1.0000      -2.910337       -79.1943
  10   1.0000      -2.904995       -79.0489
  11   1.0000      -2.904995       -79.0489
  12   1.0000      -2.889025       -78.6144
  13   1.0000      -2.889025       -78.6144
  14   1.0000      -0.902456       -24.5571
  15   1.0000      -0.435383       -11.8474
  16   1.0000      -0.380024       -10.3410
  17   1.0000      -0.380024       -10.3410
  18   0.0000       0.051620         1.4046
  19   0.0000       0.055897         1.5210
  20   0.0000       0.055897         1.5210
  21   0.0000       0.063430         1.7260
  22   0.0000       0.149974         4.0810

                 SPIN DOWN ORBITALS
  NO   OCC          E(Eh)            E(eV)
   0   1.0000    -485.891354    -13221.7759
   1   1.0000     -63.643296     -1731.8221
   2   1.0000     -57.264774     -1558.2537
   3   1.0000     -57.264319     -1558.2413
   4   1.0000     -57.264319     -1558.2413
   5   1.0000      -9.201499      -250.3855
   6   1.0000      -6.936975      -188.7647
   7   1.0000      -6.931330      -188.6111
   8   1.0000      -6.931330      -188.6111
   9   1.0000      -2.901249       -78.9470
  10   1.0000      -2.898045       -78.8598
  11   1.0000      -2.898045       -78.8598
  12   1.0000      -2.888305       -78.5948
  13   1.0000      -2.888305       -78.5948
  14   1.0000      -0.833852       -22.6903
  15   1.0000      -0.364002        -9.9050
  16   1.0000      -0.364002        -9.9050
  17   0.0000      -0.160061        -4.3555
  18   0.0000       0.056274         1.5313
  19   0.0000       0.056275         1.5313
  20   0.0000       0.058012         1.5786
  21   0.0000       0.067462         1.8357

MULLIKEN ATOMIC CHARGES AND SPIN POPULATIONS
--------------------------------------------
   0 Br:   -0.000000    1.000000
Sum of atomic charges         :   -0.0000000

LOEWDIN ATOMIC CHARGES AND SPIN POPULATIONS
-------------------------------------------
   0 Br:   -0.000000    1.000000

MP2 TOTAL ENERGY:    -2573.729555910 Eh
Dispersion correction            0.000000000
FINAL SINGLE POINT ENERGY     -2573.729555910216

DIPOLE MOMENT
-------------
                                X             Y             Z
Electronic contribution:     -0.00000       0.00000      -0.00000
Nuclear contribution   :      0.00000       0.00000       0.00000
                        -----------------------------------------
Total Dipole Moment    :     -0.00000       0.00000      -0.00000
                        -----------------------------------------
Magnitude (a.u.)       :      0.00000
Magnitude (Debye)      :      0.00000

Rotational constants in cm-1:     0.000000     0.000000     0.000000
Rotational constants in MHz :     0.000000     0.000000     0.000000

                             ****ORCA TERMINATED NORMALLY****
TOTAL RUN TIME: 0 days 0 hours 0 minutes 3 seconds 277 msec
