                         Program Version 4.2.0 -  RELEASE  -
|  1> #
|  2> # TMD03_F ri-B2PLYP-D3BJ/Def2-TZVPPD
|  3> #
|  4> ! rijk ri-b2plyp d3bj def2-tzvppd def2/jk def2-tzvppd/c grid4 nofinalgrid
|  5>
|  6> *xyz 0 2
|  7> F        0.000000    0.000000    0.000000
|  8> *
|  9>
| 10> %maxcore 5000
| 11>
| 12> %pal
| 13> nprocs = 24
| 14> end
| 15>
| 16>
| 17>                          ****END OF INPUT****

CARTESIAN COORDINATES (ANGSTROEM)
---------------------------------
  F      0.000000    0.000000    0.000000

 Total Charge           Charge          ....    0
 Multiplicity           Mult            ....    2
 Number of Electrons    NEL             ....    9
 Basis Dimension        Dim             ....   40

ORBITAL ENERGIES
----------------
                 SPIN UP ORBITALS
  NO   OCC          E(Eh)            E(eV)
   0   1.0000     -25.467478      -693.0053
   1   1.0000      -1.416877       -38.5552
   2   1.0000      -0.683095       -18.5880
   3   1.0000      -0.584861       -15.9149
   4   1.0000      -0.584861       -15.9149
   5   0.0000       0.112369         3.0577
   6   0.0000       0.115671         3.1476
   7   0.0000       0.120411         3.2766
   8   0.0000       0.120411         3.2766
   9   0.0000       0.506345        13.7784

                 SPIN DOWN ORBITALS
  NO   OCC          E(Eh)            E(eV)
   0   1.0000     -25.429465      -691.9709
   1   1.0000      -1.284568       -34.9549
   2   1.0000      -0.546500       -14.8710
   3   1.0000      -0.546499       -14.8710
   4   0.0000      -0.139609        -3.7990
   5   0.0000       0.116930         3.1818
   6   0.0000       0.121623         3.3095
   7   0.0000       0.121626         3.3096
   8   0.0000       0.134851         3.6695

MULLIKEN ATOMIC CHARGES AND SPIN POPULATIONS
--------------------------------------------
   0 F :   -0.000000    1.000000
Sum of atomic charges         :   -0.0000000

LOEWDIN ATOMIC CHARGES AND SPIN POPULATIONS
-------------------------------------------
   0 F :   -0.000000    1.000000

MP2 TOTAL ENERGY:      -99.719840539 Eh
Dispersion correction            0.000000000
FINAL SINGLE POINT ENERGY       -99.719840539328

DIPOLE MOMENT
-------------
                                X             Y             Z
Electronic contribution:      0.00000       0.00000      -0.00000
Nuclear contribution   :      0.00000       0.00000       0.00000
                        -----------------------------------------
Total Dipole Moment    :      0.00000       0.00000      -0.00000
                        -----------------------------------------
Magnitude (a.u.)       :      0.00000
Magnitude (Debye)      :      0.00000

Rotational constants in cm-1:     0.000000     0.000000     0.000000
Rotational constants in MHz :     0.000000     0.000000     0.000000

                             ****ORCA TERMINATED NORMALLY****
TOTAL RUN TIME: 0 days 0 hours 0 minutes 2 seconds 858 msec
