                         Program Version 4.2.0 -  RELEASE  -
|  1> #
|  2> # TMD04_S ri-B2PLYP-D3BJ/Def2-TZVPPD
|  3> #
|  4> ! rijk ri-b2plyp d3bj def2-tzvppd def2/jk def2-tzvppd/c grid4 nofinalgrid
|  5>
|  6> *xyz 0 3
|  7> S        0.000000    0.000000    0.000000
|  8> *
|  9>
| 10> %maxcore 5000
| 11>
| 12> %pal
| 13> nprocs = 24
| 14> end
| 15>
| 16>
| 17>                          ****END OF INPUT****

CARTESIAN COORDINATES (ANGSTROEM)
---------------------------------
  S      0.000000    0.000000    0.000000

 Total Charge           Charge          ....    0
 Multiplicity           Mult            ....    3
 Number of Electrons    NEL             ....   16
 Basis Dimension        Dim             ....   51

ORBITAL ENERGIES
----------------
                 SPIN UP ORBITALS
  NO   OCC          E(Eh)            E(eV)
   0   1.0000     -90.213116     -2454.8237
   1   1.0000      -8.414058      -228.9582
   2   1.0000      -6.268771      -170.5819
   3   1.0000      -6.268771      -170.5819
   4   1.0000      -6.249337      -170.0531
   5   1.0000      -0.835480       -22.7346
   6   1.0000      -0.397130       -10.8064
   7   1.0000      -0.397130       -10.8064
   8   1.0000      -0.341694        -9.2980
   9   0.0000       0.056914         1.5487
  10   0.0000       0.056914         1.5487
  11   0.0000       0.060213         1.6385
  12   0.0000       0.061148         1.6639
  13   0.0000       0.157686         4.2909

                 SPIN DOWN ORBITALS
  NO   OCC          E(Eh)            E(eV)
   0   1.0000     -90.197732     -2454.4051
   1   1.0000      -8.400059      -228.5772
   2   1.0000      -6.241267      -169.8335
   3   1.0000      -6.236181      -169.6951
   4   1.0000      -6.236181      -169.6951
   5   1.0000      -0.694999       -18.9119
   6   1.0000      -0.312126        -8.4934
   7   0.0000      -0.103697        -2.8217
   8   0.0000      -0.103695        -2.8217
   9   0.0000       0.061892         1.6842
  10   0.0000       0.067560         1.8384
  11   0.0000       0.067592         1.8393

MULLIKEN ATOMIC CHARGES AND SPIN POPULATIONS
--------------------------------------------
   0 S :    0.000000    2.000000
Sum of atomic charges         :    0.0000000

LOEWDIN ATOMIC CHARGES AND SPIN POPULATIONS
-------------------------------------------
   0 S :    0.000000    2.000000

MP2 TOTAL ENERGY:     -397.991230459 Eh
Dispersion correction            0.000000000
FINAL SINGLE POINT ENERGY      -397.991230458797

DIPOLE MOMENT
-------------
                                X             Y             Z
Electronic contribution:      0.00000      -0.00000      -0.00000
Nuclear contribution   :      0.00000       0.00000       0.00000
                        -----------------------------------------
Total Dipole Moment    :      0.00000      -0.00000      -0.00000
                        -----------------------------------------
Magnitude (a.u.)       :      0.00000
Magnitude (Debye)      :      0.00000

Rotational constants in cm-1:     0.000000     0.000000     0.000000
Rotational constants in MHz :     0.000000     0.000000     0.000000

                             ****ORCA TERMINATED NORMALLY****
TOTAL RUN TIME: 0 days 0 hours 0 minutes 2 seconds 907 msec
