                         Program Version 4.2.0 -  RELEASE  -
|  1> #
|  2> # TMD05_Cl ri-B2PLYP-D3BJ/Def2-TZVPPD
|  3> #
|  4> ! rijk ri-b2plyp d3bj def2-tzvppd def2/jk def2-tzvppd/c grid4 nofinalgrid
|  5>
|  6> *xyz 0 2
|  7> Cl       0.000000    0.000000    0.000000
|  8> *
|  9>
| 10> %maxcore 5000
| 11>
| 12> %pal
| 13> nprocs = 24
| 14> end
| 15>
| 16>
| 17>                          ****END OF INPUT****

CARTESIAN COORDINATES (ANGSTROEM)
---------------------------------
  Cl     0.000000    0.000000    0.000000

 Total Charge           Charge          ....    0
 Multiplicity           Mult            ....    2
 Number of Electrons    NEL             ....   17
 Basis Dimension        Dim             ....   51

ORBITAL ENERGIES
----------------
                 SPIN UP ORBITALS
  NO   OCC          E(Eh)            E(eV)
   0   1.0000    -102.963610     -2801.7823
   1   1.0000      -9.965433      -271.1732
   2   1.0000      -7.619464      -207.3362
   3   1.0000      -7.596206      -206.7033
   4   1.0000      -7.596206      -206.7033
   5   1.0000      -0.969200       -26.3733
   6   1.0000      -0.481769       -13.1096
   7   1.0000      -0.418311       -11.3828
   8   1.0000      -0.418311       -11.3828
   9   0.0000       0.065675         1.7871
  10   0.0000       0.070490         1.9181
  11   0.0000       0.070490         1.9181
  12   0.0000       0.078200         2.1279
  13   0.0000       0.197694         5.3795

                 SPIN DOWN ORBITALS
  NO   OCC          E(Eh)            E(eV)
   0   1.0000    -102.954167     -2801.5253
   1   1.0000      -9.957096      -270.9464
   2   1.0000      -7.591383      -206.5720
   3   1.0000      -7.591383      -206.5720
   4   1.0000      -7.585394      -206.4091
   5   1.0000      -0.888635       -24.1810
   6   1.0000      -0.400613       -10.9012
   7   1.0000      -0.400613       -10.9012
   8   0.0000      -0.162731        -4.4281
   9   0.0000       0.071015         1.9324
  10   0.0000       0.071017         1.9325
  11   0.0000       0.074826         2.0361
  12   0.0000       0.082551         2.2463

MULLIKEN ATOMIC CHARGES AND SPIN POPULATIONS
--------------------------------------------
   0 Cl:    0.000000    1.000000
Sum of atomic charges         :    0.0000000

LOEWDIN ATOMIC CHARGES AND SPIN POPULATIONS
-------------------------------------------
   0 Cl:   -0.000000    1.000000

MP2 TOTAL ENERGY:     -460.022989184 Eh
Dispersion correction            0.000000000
FINAL SINGLE POINT ENERGY      -460.022989184301

DIPOLE MOMENT
-------------
                                X             Y             Z
Electronic contribution:      0.00000      -0.00000      -0.00000
Nuclear contribution   :      0.00000       0.00000       0.00000
                        -----------------------------------------
Total Dipole Moment    :      0.00000      -0.00000      -0.00000
                        -----------------------------------------
Magnitude (a.u.)       :      0.00000
Magnitude (Debye)      :      0.00000

Rotational constants in cm-1:     0.000000     0.000000     0.000000
Rotational constants in MHz :     0.000000     0.000000     0.000000

                             ****ORCA TERMINATED NORMALLY****
TOTAL RUN TIME: 0 days 0 hours 0 minutes 2 seconds 895 msec
