                         Program Version 4.2.0 -  RELEASE  -
|  1> #
|  2> # TMD16_VO ri-B2PLYP-D3BJ/Def2-TZVPPD
|  3> #
|  4> ! rijk ri-b2plyp d3bj def2-tzvppd def2/jk def2-tzvppd/c grid4 nofinalgrid
|  5>
|  6> *xyz 0 4
|  7> V        0.000000    0.000000    0.412903
|  8> O        0.000000    0.000000   -1.187097
|  9> *
| 10>
| 11> %maxcore 5000
| 12>
| 13> %pal
| 14> nprocs = 24
| 15> end
| 16>
| 17>
| 18>                          ****END OF INPUT****

CARTESIAN COORDINATES (ANGSTROEM)
---------------------------------
  V      0.000000    0.000000    0.412903
  O      0.000000    0.000000   -1.187097

 Total Charge           Charge          ....    0
 Multiplicity           Mult            ....    4
 Number of Electrons    NEL             ....   31
 Basis Dimension        Dim             ....  107

ORBITAL ENERGIES
----------------
                 SPIN UP ORBITALS
  NO   OCC          E(Eh)            E(eV)
   0   1.0000    -198.824238     -5410.2826
   1   1.0000     -22.946419      -624.4038
   2   1.0000     -19.693877      -535.8976
   3   1.0000     -19.303860      -525.2847
   4   1.0000     -19.297636      -525.1154
   5   1.0000     -19.297636      -525.1154
   6   1.0000      -2.920803       -79.4791
   7   1.0000      -1.886462       -51.3333
   8   1.0000      -1.886462       -51.3333
   9   1.0000      -1.879393       -51.1409
  10   1.0000      -0.975649       -26.5487
  11   1.0000      -0.393122       -10.6974
  12   1.0000      -0.366452        -9.9717
  13   1.0000      -0.366452        -9.9717
  14   1.0000      -0.329646        -8.9701
  15   1.0000      -0.329646        -8.9701
  16   1.0000      -0.227026        -6.1777
  17   0.0000      -0.030720        -0.8359
  18   0.0000      -0.030720        -0.8359
  19   0.0000      -0.026779        -0.7287
  20   0.0000       0.042404         1.1539
  21   0.0000       0.042404         1.1539

                 SPIN DOWN ORBITALS
  NO   OCC          E(Eh)            E(eV)
   0   1.0000    -198.822618     -5410.2385
   1   1.0000     -22.907193      -623.3364
   2   1.0000     -19.709137      -536.3129
   3   1.0000     -19.286349      -524.8083
   4   1.0000     -19.253418      -523.9121
   5   1.0000     -19.253418      -523.9121
   6   1.0000      -2.792261       -75.9813
   7   1.0000      -1.805910       -49.1413
   8   1.0000      -1.705067       -46.3972
   9   1.0000      -1.705067       -46.3972
  10   1.0000      -1.016307       -27.6551
  11   1.0000      -0.410174       -11.1614
  12   1.0000      -0.392703       -10.6860
  13   1.0000      -0.392703       -10.6860
  14   0.0000      -0.057917        -1.5760
  15   0.0000       0.008693         0.2365
  16   0.0000       0.008693         0.2365
  17   0.0000       0.017180         0.4675
  18   0.0000       0.067507         1.8370

MULLIKEN ATOMIC CHARGES AND SPIN POPULATIONS
--------------------------------------------
   0 V :    0.783485    3.335979
   1 O :   -0.783485   -0.335979
Sum of atomic charges         :   -0.0000000

LOEWDIN ATOMIC CHARGES AND SPIN POPULATIONS
-------------------------------------------
   0 V :    0.475246    3.180260
   1 O :   -0.475246   -0.180260

  Mayer bond orders larger than 0.100000
B(  0-V ,  1-O ) :   2.1981

MP2 TOTAL ENERGY:    -1019.028673391 Eh
Dispersion correction           -0.000729475
FINAL SINGLE POINT ENERGY     -1019.029402865647

DIPOLE MOMENT
-------------
                                X             Y             Z
Electronic contribution:     -0.00000      -0.00000       3.43771
Nuclear contribution   :      0.00000       0.00000      -1.78611
                        -----------------------------------------
Total Dipole Moment    :     -0.00000      -0.00000       1.65160
                        -----------------------------------------
Magnitude (a.u.)       :      1.65160
Magnitude (Debye)      :      4.19803

Rotational constants in cm-1:     0.000000     0.540859     0.540859
Rotational constants in MHz :     0.000000 16214.556702 16214.556702

                             ****ORCA TERMINATED NORMALLY****
TOTAL RUN TIME: 0 days 0 hours 0 minutes 4 seconds 938 msec
