                         Program Version 4.2.0 -  RELEASE  -
|  1> #
|  2> # TMD18_MnBr ri-B2PLYP-D3BJ/Def2-TZVPPD
|  3> #
|  4> ! rijk ri-b2plyp d3bj def2-tzvppd def2/jk def2-tzvppd/c grid4 nofinalgrid
|  5>
|  6> *xyz 0 7
|  7> Mn       0.000000    0.000000   -1.400000
|  8> Br       0.000000    0.000000    1.000000
|  9> *
| 10>
| 11> %maxcore 5000
| 12>
| 13> %pal
| 14> nprocs = 24
| 15> end
| 16>
| 17>
| 18>                          ****END OF INPUT****

CARTESIAN COORDINATES (ANGSTROEM)
---------------------------------
  Mn     0.000000    0.000000   -1.400000
  Br     0.000000    0.000000    1.000000

 Total Charge           Charge          ....    0
 Multiplicity           Mult            ....    7
 Number of Electrons    NEL             ....   60
 Basis Dimension        Dim             ....  124

ORBITAL ENERGIES
----------------
                 SPIN UP ORBITALS
  NO   OCC          E(Eh)            E(eV)
   0   1.0000    -485.813717    -13219.6633
   1   1.0000    -237.658260     -6467.0100
   2   1.0000     -63.565885     -1729.7157
   3   1.0000     -57.188466     -1556.1773
   4   1.0000     -57.187842     -1556.1603
   5   1.0000     -57.187842     -1556.1603
   6   1.0000     -28.165435      -766.4204
   7   1.0000     -24.082710      -655.3238
   8   1.0000     -24.082710      -655.3238
   9   1.0000     -24.081514      -655.2913
  10   1.0000      -9.127157      -248.3626
  11   1.0000      -6.861826      -186.7198
  12   1.0000      -6.859518      -186.6570
  13   1.0000      -6.859518      -186.6570
  14   1.0000      -3.643580       -99.1469
  15   1.0000      -2.821856       -76.7866
  16   1.0000      -2.821007       -76.7635
  17   1.0000      -2.821007       -76.7635
  18   1.0000      -2.819077       -76.7110
  19   1.0000      -2.819058       -76.7105
  20   1.0000      -2.443457       -66.4898
  21   1.0000      -2.443457       -66.4898
  22   1.0000      -2.440392       -66.4064
  23   1.0000      -0.831082       -22.6149
  24   1.0000      -0.519551       -14.1377
  25   1.0000      -0.518845       -14.1185
  26   1.0000      -0.518845       -14.1185
  27   1.0000      -0.517850       -14.0914
  28   1.0000      -0.517850       -14.0914
  29   1.0000      -0.372301       -10.1308
  30   1.0000      -0.325908        -8.8684
  31   1.0000      -0.325908        -8.8684
  32   1.0000      -0.239590        -6.5196
  33   0.0000      -0.018433        -0.5016
  34   0.0000      -0.018433        -0.5016
  35   0.0000       0.025445         0.6924
  36   0.0000       0.061185         1.6649
  37   0.0000       0.072433         1.9710

                 SPIN DOWN ORBITALS
  NO   OCC          E(Eh)            E(eV)
   0   1.0000    -485.813286    -13219.6516
   1   1.0000    -237.654335     -6466.9032
   2   1.0000     -63.565602     -1729.7080
   3   1.0000     -57.187789     -1556.1589
   4   1.0000     -57.187515     -1556.1514
   5   1.0000     -57.187515     -1556.1514
   6   1.0000     -28.059759      -763.5449
   7   1.0000     -23.986535      -652.7068
   8   1.0000     -23.986535      -652.7068
   9   1.0000     -23.985121      -652.6683
  10   1.0000      -9.126354      -248.3407
  11   1.0000      -6.860478      -186.6831
  12   1.0000      -6.858818      -186.6379
  13   1.0000      -6.858818      -186.6379
  14   1.0000      -3.345835       -91.0448
  15   1.0000      -2.821082       -76.7655
  16   1.0000      -2.820317       -76.7447
  17   1.0000      -2.820317       -76.7447
  18   1.0000      -2.818613       -76.6984
  19   1.0000      -2.818594       -76.6978
  20   1.0000      -2.106535       -57.3217
  21   1.0000      -2.106535       -57.3217
  22   1.0000      -2.101295       -57.1791
  23   1.0000      -0.822952       -22.3937
  24   1.0000      -0.370696       -10.0872
  25   1.0000      -0.328615        -8.9421
  26   1.0000      -0.328615        -8.9421
  27   0.0000      -0.067434        -1.8350
  28   0.0000       0.009034         0.2458
  29   0.0000       0.009034         0.2458
  30   0.0000       0.016057         0.4369
  31   0.0000       0.023732         0.6458

MULLIKEN ATOMIC CHARGES AND SPIN POPULATIONS
--------------------------------------------
   0 Mn:    0.419486    5.982094
   1 Br:   -0.419486    0.017906
Sum of atomic charges         :    0.0000000

LOEWDIN ATOMIC CHARGES AND SPIN POPULATIONS
-------------------------------------------
   0 Mn:    0.257068    5.767054
   1 Br:   -0.257068    0.232946

  Mayer bond orders larger than 0.100000
B(  0-Mn,  1-Br) :   0.7233

MP2 TOTAL ENERGY:    -3724.652422377 Eh
Dispersion correction           -0.001699388
FINAL SINGLE POINT ENERGY     -3724.654121764653

DIPOLE MOMENT
-------------
                                X             Y             Z
Electronic contribution:     -0.00000      -0.00000       1.20152
Nuclear contribution   :      0.00000       0.00000      -2.50917
                        -----------------------------------------
Total Dipole Moment    :     -0.00000      -0.00000      -1.30765
                        -----------------------------------------
Magnitude (a.u.)       :      1.30765
Magnitude (Debye)      :      3.32378

Rotational constants in cm-1:     0.000000     0.089900     0.089900
Rotational constants in MHz :     0.000000  2695.122005  2695.122005

                             ****ORCA TERMINATED NORMALLY****
TOTAL RUN TIME: 0 days 0 hours 0 minutes 5 seconds 454 msec
