                         Program Version 4.2.0 -  RELEASE  -
|  1> #
|  2> # TMD10_Mn ri-B2PLYP-D3BJ/Def2-TZVPPD
|  3> #
|  4> ! rijk ri-b2plyp d3bj def2-tzvppd def2/jk def2-tzvppd/c grid4 nofinalgrid
|  5>
|  6> *xyz 0 6
|  7> Mn       0.000000    0.000000    0.000000
|  8> *
|  9>
| 10> %maxcore 5000
| 11>
| 12> %pal
| 13> nprocs = 24
| 14> end
| 15>
| 16>
| 17>                          ****END OF INPUT****

CARTESIAN COORDINATES (ANGSTROEM)
---------------------------------
  Mn     0.000000    0.000000    0.000000

 Total Charge           Charge          ....    0
 Multiplicity           Mult            ....    6
 Number of Electrons    NEL             ....   25
 Basis Dimension        Dim             ....   67

ORBITAL ENERGIES
----------------
                 SPIN UP ORBITALS
  NO   OCC          E(Eh)            E(eV)
   0   1.0000    -237.465198     -6461.7566
   1   1.0000     -27.937894      -760.2287
   2   1.0000     -23.873989      -649.6443
   3   1.0000     -23.853834      -649.0958
   4   1.0000     -23.847011      -648.9102
   5   1.0000      -3.401427       -92.5575
   6   1.0000      -2.238920       -60.9241
   7   1.0000      -2.192042       -59.6485
   8   1.0000      -2.176126       -59.2154
   9   1.0000      -0.318054        -8.6547
  10   1.0000      -0.314051        -8.5458
  11   1.0000      -0.307828        -8.3764
  12   1.0000      -0.289694        -7.8830
  13   1.0000      -0.254095        -6.9143
  14   1.0000      -0.197608        -5.3772
  15   0.0000       0.000419         0.0114
  16   0.0000       0.004944         0.1345
  17   0.0000       0.006565         0.1787
  18   0.0000       0.123911         3.3718
  19   0.0000       0.129354         3.5199

                 SPIN DOWN ORBITALS
  NO   OCC          E(Eh)            E(eV)
   0   1.0000    -237.462365     -6461.6795
   1   1.0000     -27.859162      -758.0863
   2   1.0000     -23.791202      -647.3915
   3   1.0000     -23.786105      -647.2528
   4   1.0000     -23.784339      -647.2048
   5   1.0000      -3.171869       -86.3110
   6   1.0000      -1.949329       -53.0439
   7   1.0000      -1.945703       -52.9453
   8   1.0000      -1.933206       -52.6052
   9   1.0000      -0.151258        -4.1159
  10   0.0000      -0.041477        -1.1286
  11   0.0000       0.023419         0.6373
  12   0.0000       0.023604         0.6423
  13   0.0000       0.024995         0.6802
  14   0.0000       0.134738         3.6664

MULLIKEN ATOMIC CHARGES AND SPIN POPULATIONS
--------------------------------------------
   0 Mn:    0.000000    5.000000
Sum of atomic charges         :    0.0000000

LOEWDIN ATOMIC CHARGES AND SPIN POPULATIONS
-------------------------------------------
   0 Mn:   -0.000000    5.000000

MP2 TOTAL ENERGY:    -1150.751289976 Eh
Dispersion correction            0.000000000
FINAL SINGLE POINT ENERGY     -1150.751289975903

DIPOLE MOMENT
-------------
                                X             Y             Z
Electronic contribution:      0.00000       0.00000       0.00000
Nuclear contribution   :      0.00000       0.00000       0.00000
                        -----------------------------------------
Total Dipole Moment    :      0.00000       0.00000       0.00000
                        -----------------------------------------
Magnitude (a.u.)       :      0.00000
Magnitude (Debye)      :      0.00000

Rotational constants in cm-1:     0.000000     0.000000     0.000000
Rotational constants in MHz :     0.000000     0.000000     0.000000

                             ****ORCA TERMINATED NORMALLY****
TOTAL RUN TIME: 0 days 0 hours 0 minutes 3 seconds 942 msec
