                         Program Version 4.2.0 -  RELEASE  -
|  1> #
|  2> # TMD12_Co ri-B2PLYP-D3BJ/Def2-TZVPPD
|  3> #
|  4> ! rijk ri-b2plyp d3bj def2-tzvppd def2/jk def2-tzvppd/c grid4 nofinalgrid
|  5>
|  6> *xyz 0 4
|  7> Co       0.000000    0.000000    0.000000
|  8> *
|  9>
| 10> %maxcore 5000
| 11>
| 12> %pal
| 13> nprocs = 24
| 14> end
| 15>
| 16>
| 17>                          ****END OF INPUT****

CARTESIAN COORDINATES (ANGSTROEM)
---------------------------------
  Co     0.000000    0.000000    0.000000

 Total Charge           Charge          ....    0
 Multiplicity           Mult            ....    4
 Number of Electrons    NEL             ....   27
 Basis Dimension        Dim             ....   67

ORBITAL ENERGIES
----------------
                 SPIN UP ORBITALS
  NO   OCC          E(Eh)            E(eV)
   0   1.0000    -279.717766     -7611.5074
   1   1.0000     -33.552646      -913.0139
   2   1.0000     -29.033311      -790.0366
   3   1.0000     -29.033252      -790.0349
   4   1.0000     -29.033173      -790.0328
   5   1.0000      -3.980990      -108.3283
   6   1.0000      -2.595103       -70.6163
   7   1.0000      -2.594981       -70.6130
   8   1.0000      -2.594806       -70.6083
   9   1.0000      -0.358695        -9.7606
  10   1.0000      -0.358677        -9.7601
  11   1.0000      -0.315766        -8.5924
  12   1.0000      -0.315698        -8.5906
  13   1.0000      -0.315651        -8.5893
  14   1.0000      -0.205677        -5.5968
  15   0.0000       0.009430         0.2566
  16   0.0000       0.009440         0.2569
  17   0.0000       0.009465         0.2576
  18   0.0000       0.157804         4.2941
  19   0.0000       0.157815         4.2944

                 SPIN DOWN ORBITALS
  NO   OCC          E(Eh)            E(eV)
   0   1.0000    -279.715185     -7611.4371
   1   1.0000     -33.501174      -911.6133
   2   1.0000     -28.987673      -788.7947
   3   1.0000     -28.987648      -788.7940
   4   1.0000     -28.987641      -788.7938
   5   1.0000      -3.847402      -104.6931
   6   1.0000      -2.445869       -66.5555
   7   1.0000      -2.445843       -66.5548
   8   1.0000      -2.445785       -66.5532
   9   1.0000      -0.262307        -7.1377
  10   1.0000      -0.262264        -7.1366
  11   1.0000      -0.262106        -7.1323
  12   0.0000      -0.050767        -1.3814
  13   0.0000       0.028267         0.7692
  14   0.0000       0.028303         0.7702
  15   0.0000       0.028316         0.7705
  16   0.0000       0.145335         3.9548

MULLIKEN ATOMIC CHARGES AND SPIN POPULATIONS
--------------------------------------------
   0 Co:   -0.000000    3.000000
Sum of atomic charges         :   -0.0000000

LOEWDIN ATOMIC CHARGES AND SPIN POPULATIONS
-------------------------------------------
   0 Co:   -0.000000    3.000000

MP2 TOTAL ENERGY:    -1382.548212988 Eh
Dispersion correction            0.000000000
FINAL SINGLE POINT ENERGY     -1382.548212988082

DIPOLE MOMENT
-------------
                                X             Y             Z
Electronic contribution:     -0.00000       0.00000       0.00000
Nuclear contribution   :      0.00000       0.00000       0.00000
                        -----------------------------------------
Total Dipole Moment    :     -0.00000       0.00000       0.00000
                        -----------------------------------------
Magnitude (a.u.)       :      0.00000
Magnitude (Debye)      :      0.00000

Rotational constants in cm-1:     0.000000     0.000000     0.000000
Rotational constants in MHz :     0.000000     0.000000     0.000000

                             ****ORCA TERMINATED NORMALLY****
TOTAL RUN TIME: 0 days 0 hours 0 minutes 4 seconds 535 msec
