                         Program Version 4.2.0 -  RELEASE  -
|  1> #
|  2> # TMD19_FeCl ri-B2PLYP-D3BJ/Def2-TZVPPD
|  3> #
|  4> ! rijk ri-b2plyp d3bj def2-tzvppd def2/jk def2-tzvppd/c grid4 nofinalgrid
|  5>
|  6> *xyz 0 6
|  7> Fe       0.000000    0.000000    0.869767
|  8> Cl       0.000000    0.000000   -1.330233
|  9> *
| 10>
| 11> %maxcore 5000
| 12>
| 13> %pal
| 14> nprocs = 24
| 15> end
| 16>
| 17>
| 18>                          ****END OF INPUT****

CARTESIAN COORDINATES (ANGSTROEM)
---------------------------------
  Fe     0.000000    0.000000    0.869767
  Cl     0.000000    0.000000   -1.330233

 Total Charge           Charge          ....    0
 Multiplicity           Mult            ....    6
 Number of Electrons    NEL             ....   43
 Basis Dimension        Dim             ....  118

ORBITAL ENERGIES
----------------
                 SPIN UP ORBITALS
  NO   OCC          E(Eh)            E(eV)
   0   1.0000    -258.366009     -7030.4965
   1   1.0000    -102.867698     -2799.1724
   2   1.0000     -30.930025      -841.6488
   3   1.0000     -26.647794      -725.1233
   4   1.0000     -26.617285      -724.2931
   5   1.0000     -26.617285      -724.2931
   6   1.0000      -9.874375      -268.6954
   7   1.0000      -7.511757      -204.4053
   8   1.0000      -7.509885      -204.3544
   9   1.0000      -7.509885      -204.3544
  10   1.0000      -3.943035      -107.2954
  11   1.0000      -2.691632       -73.2430
  12   1.0000      -2.627687       -71.5030
  13   1.0000      -2.627687       -71.5030
  14   1.0000      -0.894789       -24.3485
  15   1.0000      -0.575582       -15.6624
  16   1.0000      -0.566416       -15.4130
  17   1.0000      -0.566416       -15.4130
  18   1.0000      -0.540840       -14.7170
  19   1.0000      -0.499011       -13.5788
  20   1.0000      -0.403993       -10.9932
  21   1.0000      -0.360029        -9.7969
  22   1.0000      -0.360029        -9.7969
  23   1.0000      -0.246230        -6.7003
  24   0.0000      -0.010784        -0.2934
  25   0.0000      -0.010784        -0.2934
  26   0.0000       0.031478         0.8566
  27   0.0000       0.072136         1.9629
  28   0.0000       0.090515         2.4630

                 SPIN DOWN ORBITALS
  NO   OCC          E(Eh)            E(eV)
   0   1.0000    -258.362125     -7030.3908
   1   1.0000    -102.866197     -2799.1315
   2   1.0000     -30.833289      -839.0165
   3   1.0000     -26.544342      -722.3083
   4   1.0000     -26.537675      -722.1269
   5   1.0000     -26.537675      -722.1269
   6   1.0000      -9.872951      -268.6566
   7   1.0000      -7.508827      -204.3256
   8   1.0000      -7.508095      -204.3057
   9   1.0000      -7.508095      -204.3057
  10   1.0000      -3.686692      -100.3200
  11   1.0000      -2.367379       -64.4197
  12   1.0000      -2.367379       -64.4197
  13   1.0000      -2.344554       -63.7986
  14   1.0000      -0.883516       -24.0417
  15   1.0000      -0.408628       -11.1193
  16   1.0000      -0.391589       -10.6557
  17   1.0000      -0.362083        -9.8528
  18   1.0000      -0.362083        -9.8528
  19   0.0000      -0.072934        -1.9846
  20   0.0000       0.000232         0.0063
  21   0.0000       0.004062         0.1105
  22   0.0000       0.004062         0.1105
  23   0.0000       0.021386         0.5820

MULLIKEN ATOMIC CHARGES AND SPIN POPULATIONS
--------------------------------------------
   0 Fe:    0.481814    4.938249
   1 Cl:   -0.481814    0.061751
Sum of atomic charges         :   -0.0000000

LOEWDIN ATOMIC CHARGES AND SPIN POPULATIONS
-------------------------------------------
   0 Fe:    0.262068    4.748995
   1 Cl:   -0.262068    0.251005

  Mayer bond orders larger than 0.100000
B(  0-Fe,  1-Cl) :   0.7099

MP2 TOTAL ENERGY:    -1723.639650438 Eh
Dispersion correction           -0.001292261
FINAL SINGLE POINT ENERGY     -1723.640942698711

DIPOLE MOMENT
-------------
                                X             Y             Z
Electronic contribution:     -0.00000      -0.00000       2.36342
Nuclear contribution   :      0.00000       0.00000      -1.26002
                        -----------------------------------------
Total Dipole Moment    :     -0.00000      -0.00000       1.10340
                        -----------------------------------------
Magnitude (a.u.)       :      1.10340
Magnitude (Debye)      :      2.80461

Rotational constants in cm-1:     0.000000     0.160606     0.160606
Rotational constants in MHz :     0.000000  4814.831818  4814.831818

                             ****ORCA TERMINATED NORMALLY****
TOTAL RUN TIME: 0 days 0 hours 0 minutes 4 seconds 413 msec
