                         Program Version 4.2.0 -  RELEASE  -
|  1> #
|  2> # TMD13_Cu ri-B2PLYP-D3BJ/Def2-TZVPPD
|  3> #
|  4> ! rijk ri-b2plyp d3bj def2-tzvppd def2/jk def2-tzvppd/c grid4 nofinalgrid
|  5>
|  6> *xyz 0 2
|  7> Cu       0.000000    0.000000    0.000000
|  8> *
|  9>
| 10> %maxcore 5000
| 11>
| 12> %pal
| 13> nprocs = 24
| 14> end
| 15>
| 16>
| 17>                          ****END OF INPUT****

CARTESIAN COORDINATES (ANGSTROEM)
---------------------------------
  Cu     0.000000    0.000000    0.000000

 Total Charge           Charge          ....    0
 Multiplicity           Mult            ....    2
 Number of Electrons    NEL             ....   29
 Basis Dimension        Dim             ....   67

ORBITAL ENERGIES
----------------
                 SPIN UP ORBITALS
  NO   OCC          E(Eh)            E(eV)
   0   1.0000    -325.416056     -8855.0211
   1   1.0000     -39.622604     -1078.1859
   2   1.0000     -34.657865      -943.0885
   3   1.0000     -34.657865      -943.0885
   4   1.0000     -34.657865      -943.0885
   5   1.0000      -4.574416      -124.4762
   6   1.0000      -2.991223       -81.3953
   7   1.0000      -2.991223       -81.3953
   8   1.0000      -2.991223       -81.3953
   9   1.0000      -0.350143        -9.5279
  10   1.0000      -0.350143        -9.5279
  11   1.0000      -0.350143        -9.5279
  12   1.0000      -0.350143        -9.5279
  13   1.0000      -0.350143        -9.5279
  14   1.0000      -0.213719        -5.8156
  15   0.0000       0.012021         0.3271
  16   0.0000       0.012021         0.3271
  17   0.0000       0.012021         0.3271
  18   0.0000       0.126793         3.4502
  19   0.0000       0.163250         4.4423

                 SPIN DOWN ORBITALS
  NO   OCC          E(Eh)            E(eV)
   0   1.0000    -325.414458     -8854.9776
   1   1.0000     -39.622553     -1078.1845
   2   1.0000     -34.658827      -943.1146
   3   1.0000     -34.658827      -943.1146
   4   1.0000     -34.658827      -943.1146
   5   1.0000      -4.572562      -124.4257
   6   1.0000      -2.992726       -81.4362
   7   1.0000      -2.992726       -81.4362
   8   1.0000      -2.992726       -81.4362
   9   1.0000      -0.349438        -9.5087
  10   1.0000      -0.349438        -9.5087
  11   1.0000      -0.349438        -9.5087
  12   1.0000      -0.349438        -9.5087
  13   1.0000      -0.349438        -9.5087
  14   0.0000      -0.059509        -1.6193
  15   0.0000       0.029345         0.7985
  16   0.0000       0.029345         0.7985
  17   0.0000       0.029345         0.7985
  18   0.0000       0.148563         4.0426

MULLIKEN ATOMIC CHARGES AND SPIN POPULATIONS
--------------------------------------------
   0 Cu:   -0.000000    1.000000
Sum of atomic charges         :   -0.0000000

LOEWDIN ATOMIC CHARGES AND SPIN POPULATIONS
-------------------------------------------
   0 Cu:   -0.000000    1.000000

MP2 TOTAL ENERGY:    -1640.316426600 Eh
Dispersion correction            0.000000000
FINAL SINGLE POINT ENERGY     -1640.316426599545

DIPOLE MOMENT
-------------
                                X             Y             Z
Electronic contribution:      0.00000       0.00000       0.00000
Nuclear contribution   :      0.00000       0.00000       0.00000
                        -----------------------------------------
Total Dipole Moment    :      0.00000       0.00000       0.00000
                        -----------------------------------------
Magnitude (a.u.)       :      0.00000
Magnitude (Debye)      :      0.00000

Rotational constants in cm-1:     0.000000     0.000000     0.000000
Rotational constants in MHz :     0.000000     0.000000     0.000000

                             ****ORCA TERMINATED NORMALLY****
TOTAL RUN TIME: 0 days 0 hours 0 minutes 3 seconds 305 msec
