                         Program Version 4.2.0 -  RELEASE  -
|  1> #
|  2> # TMD17_CrS ri-B2PLYP-D3BJ/Def2-TZVPPD
|  3> #
|  4> ! rijk ri-b2plyp d3bj def2-tzvppd def2/jk def2-tzvppd/c grid4 nofinalgrid
|  5>
|  6> *xyz 0 5
|  7> Cr       0.000000    0.000000    0.836000
|  8> S        0.000000    0.000000   -1.254000
|  9> *
| 10>
| 11> %maxcore 5000
| 12>
| 13> %pal
| 14> nprocs = 24
| 15> end
| 16>
| 17>
| 18>                          ****END OF INPUT****

CARTESIAN COORDINATES (ANGSTROEM)
---------------------------------
  Cr     0.000000    0.000000    0.836000
  S      0.000000    0.000000   -1.254000

 Total Charge           Charge          ....    0
 Multiplicity           Mult            ....    5
 Number of Electrons    NEL             ....   40
 Basis Dimension        Dim             ....  118

ORBITAL ENERGIES
----------------
                 SPIN UP ORBITALS
  NO   OCC          E(Eh)            E(eV)
   0   1.0000    -217.694487     -5923.7682
   1   1.0000     -90.101911     -2451.7976
   2   1.0000     -25.372153      -690.4114
   3   1.0000     -21.510632      -585.3341
   4   1.0000     -21.509208      -585.2953
   5   1.0000     -21.509193      -585.2949
   6   1.0000      -8.308485      -226.0854
   7   1.0000      -6.150968      -167.3764
   8   1.0000      -6.150443      -167.3621
   9   1.0000      -6.146905      -167.2658
  10   1.0000      -3.172519       -86.3286
  11   1.0000      -2.062581       -56.1257
  12   1.0000      -2.061104       -56.0855
  13   1.0000      -2.059896       -56.0526
  14   1.0000      -0.688261       -18.7285
  15   1.0000      -0.353967        -9.6319
  16   1.0000      -0.340527        -9.2662
  17   1.0000      -0.325168        -8.8483
  18   1.0000      -0.324051        -8.8179
  19   1.0000      -0.309894        -8.4326
  20   1.0000      -0.252001        -6.8573
  21   1.0000      -0.239988        -6.5304
  22   0.0000      -0.068264        -1.8576
  23   0.0000      -0.054265        -1.4766
  24   0.0000       0.009948         0.2707
  25   0.0000       0.018730         0.5097
  26   0.0000       0.039539         1.0759

                 SPIN DOWN ORBITALS
  NO   OCC          E(Eh)            E(eV)
   0   1.0000    -217.692781     -5923.7217
   1   1.0000     -90.109469     -2452.0033
   2   1.0000     -25.297794      -688.3880
   3   1.0000     -21.446862      -583.5988
   4   1.0000     -21.441936      -583.4647
   5   1.0000     -21.436523      -583.3174
   6   1.0000      -8.315409      -226.2738
   7   1.0000      -6.169758      -167.8877
   8   1.0000      -6.158977      -167.5943
   9   1.0000      -6.155226      -167.4922
  10   1.0000      -2.939187       -79.9793
  11   1.0000      -1.809089       -49.2278
  12   1.0000      -1.792495       -48.7763
  13   1.0000      -1.780456       -48.4487
  14   1.0000      -0.746973       -20.3262
  15   1.0000      -0.325103        -8.8465
  16   1.0000      -0.317323        -8.6348
  17   1.0000      -0.284055        -7.7295
  18   0.0000      -0.051024        -1.3884
  19   0.0000       0.013415         0.3651
  20   0.0000       0.016805         0.4573
  21   0.0000       0.025485         0.6935
  22   0.0000       0.060319         1.6414

MULLIKEN ATOMIC CHARGES AND SPIN POPULATIONS
--------------------------------------------
   0 Cr:    0.431446    5.028041
   1 S :   -0.431446   -1.028041
Sum of atomic charges         :   -0.0000000

LOEWDIN ATOMIC CHARGES AND SPIN POPULATIONS
-------------------------------------------
   0 Cr:    0.066330    4.702904
   1 S :   -0.066330   -0.702904

  Mayer bond orders larger than 0.100000
B(  0-Cr,  1-S ) :   1.3704

MP2 TOTAL ENERGY:    -1442.352937942 Eh
Dispersion correction           -0.001852386
FINAL SINGLE POINT ENERGY     -1442.354790328134

DIPOLE MOMENT
-------------
                                X             Y             Z
Electronic contribution:     -0.00000      -0.00000       5.13818
Nuclear contribution   :      0.00000       0.00000      -2.93936
                        -----------------------------------------
Total Dipole Moment    :     -0.00000      -0.00000       2.19882
                        -----------------------------------------
Magnitude (a.u.)       :      2.19882
Magnitude (Debye)      :      5.58895

Rotational constants in cm-1:     0.000000     0.194593     0.194593
Rotational constants in MHz :     0.000000  5833.746532  5833.746532

                             ****ORCA TERMINATED NORMALLY****
TOTAL RUN TIME: 0 days 0 hours 0 minutes 9 seconds 191 msec
