                         Program Version 4.2.0 -  RELEASE  -
|  1> #
|  2> # TMD14_Zn ri-B2PLYP-D3BJ/Def2-TZVPPD
|  3> #
|  4> ! rijk ri-b2plyp d3bj def2-tzvppd def2/jk def2-tzvppd/c grid4 nofinalgrid
|  5>
|  6> *xyz 0 1
|  7> Zn       0.000000    0.000000    0.000000
|  8> *
|  9>
| 10> %maxcore 5000
| 11>
| 12> %pal
| 13> nprocs = 24
| 14> end
| 15>
| 16>
| 17>                          ****END OF INPUT****

CARTESIAN COORDINATES (ANGSTROEM)
---------------------------------
  Zn     0.000000    0.000000    0.000000

 Total Charge           Charge          ....    0
 Multiplicity           Mult            ....    1
 Number of Electrons    NEL             ....   30
 Basis Dimension        Dim             ....   67

ORBITAL ENERGIES
----------------

  NO   OCC          E(Eh)            E(eV)
   0   2.0000    -349.780294     -9518.0057
   1   2.0000     -43.092329     -1172.6019
   2   2.0000     -37.897666     -1031.2479
   3   2.0000     -37.897666     -1031.2479
   4   2.0000     -37.897666     -1031.2479
   5   2.0000      -5.148434      -140.0960
   6   2.0000      -3.459687       -94.1429
   7   2.0000      -3.459687       -94.1429
   8   2.0000      -3.459687       -94.1429
   9   2.0000      -0.598144       -16.2763
  10   2.0000      -0.598144       -16.2763
  11   2.0000      -0.598144       -16.2763
  12   2.0000      -0.598144       -16.2763
  13   2.0000      -0.598144       -16.2763
  14   2.0000      -0.262661        -7.1474
  15   0.0000       0.001123         0.0306
  16   0.0000       0.001123         0.0306
  17   0.0000       0.001123         0.0306
  18   0.0000       0.071424         1.9435
  19   0.0000       0.071424         1.9435

MULLIKEN ATOMIC CHARGES
-----------------------
   0 Zn:   -0.000000
Sum of atomic charges:   -0.0000000

LOEWDIN ATOMIC CHARGES
----------------------
   0 Zn:   -0.000000

MP2 TOTAL ENERGY:    -1779.216548598 Eh
Dispersion correction            0.000000000
FINAL SINGLE POINT ENERGY     -1779.216548598364

DIPOLE MOMENT
-------------
                                X             Y             Z
Electronic contribution:      0.00000       0.00000      -0.00000
Nuclear contribution   :      0.00000       0.00000       0.00000
                        -----------------------------------------
Total Dipole Moment    :      0.00000       0.00000      -0.00000
                        -----------------------------------------
Magnitude (a.u.)       :      0.00000
Magnitude (Debye)      :      0.00000

Rotational constants in cm-1:     0.000000     0.000000     0.000000
Rotational constants in MHz :     0.000000     0.000000     0.000000

                             ****ORCA TERMINATED NORMALLY****
TOTAL RUN TIME: 0 days 0 hours 0 minutes 3 seconds 185 msec
