                         Program Version 4.2.0 -  RELEASE  -
|  1> #
|  2> # TMD11_Fe ri-B2PLYP-D3BJ/Def2-TZVPPD
|  3> #
|  4> ! rijk ri-b2plyp d3bj def2-tzvppd def2/jk def2-tzvppd/c grid4 nofinalgrid
|  5>
|  6> *xyz 0 5
|  7> Fe       0.000000    0.000000    0.000000
|  8> *
|  9>
| 10> %maxcore 5000
| 11>
| 12> %pal
| 13> nprocs = 24
| 14> end
| 15>
| 16>
| 17>                          ****END OF INPUT****

CARTESIAN COORDINATES (ANGSTROEM)
---------------------------------
  Fe     0.000000    0.000000    0.000000

 Total Charge           Charge          ....    0
 Multiplicity           Mult            ....    5
 Number of Electrons    NEL             ....   26
 Basis Dimension        Dim             ....   67

ORBITAL ENERGIES
----------------
                 SPIN UP ORBITALS
  NO   OCC          E(Eh)            E(eV)
   0   1.0000    -258.159926     -7024.8887
   1   1.0000     -30.687888      -835.0599
   2   1.0000     -26.389127      -718.0847
   3   1.0000     -26.389060      -718.0828
   4   1.0000     -26.389005      -718.0813
   5   1.0000      -3.689075      -100.3848
   6   1.0000      -2.398062       -65.2546
   7   1.0000      -2.397921       -65.2508
   8   1.0000      -2.397786       -65.2471
   9   1.0000      -0.332772        -9.0552
  10   1.0000      -0.332705        -9.0534
  11   1.0000      -0.332660        -9.0521
  12   1.0000      -0.292919        -7.9707
  13   1.0000      -0.292899        -7.9702
  14   1.0000      -0.201527        -5.4838
  15   0.0000       0.006792         0.1848
  16   0.0000       0.006799         0.1850
  17   0.0000       0.006823         0.1857
  18   0.0000       0.143267         3.8985
  19   0.0000       0.143274         3.8987

                 SPIN DOWN ORBITALS
  NO   OCC          E(Eh)            E(eV)
   0   1.0000    -258.157133     -7024.8127
   1   1.0000     -30.619848      -833.2084
   2   1.0000     -26.328160      -716.4257
   3   1.0000     -26.328136      -716.4250
   4   1.0000     -26.328130      -716.4248
   5   1.0000      -3.502896       -95.3187
   6   1.0000      -2.188375       -59.5487
   7   1.0000      -2.188343       -59.5478
   8   1.0000      -2.188289       -59.5464
   9   1.0000      -0.218391        -5.9427
  10   1.0000      -0.218345        -5.9415
  11   0.0000      -0.046386        -1.2622
  12   0.0000       0.026128         0.7110
  13   0.0000       0.026149         0.7115
  14   0.0000       0.026167         0.7120
  15   0.0000       0.146153         3.9770

MULLIKEN ATOMIC CHARGES AND SPIN POPULATIONS
--------------------------------------------
   0 Fe:   -0.000000    4.000000
Sum of atomic charges         :   -0.0000000

LOEWDIN ATOMIC CHARGES AND SPIN POPULATIONS
-------------------------------------------
   0 Fe:   -0.000000    4.000000

MP2 TOTAL ENERGY:    -1263.475501261 Eh
Dispersion correction            0.000000000
FINAL SINGLE POINT ENERGY     -1263.475501261399

DIPOLE MOMENT
-------------
                                X             Y             Z
Electronic contribution:      0.00000       0.00000       0.00000
Nuclear contribution   :      0.00000       0.00000       0.00000
                        -----------------------------------------
Total Dipole Moment    :      0.00000       0.00000       0.00000
                        -----------------------------------------
Magnitude (a.u.)       :      0.00000
Magnitude (Debye)      :      0.00000

Rotational constants in cm-1:     0.000000     0.000000     0.000000
Rotational constants in MHz :     0.000000     0.000000     0.000000

                             ****ORCA TERMINATED NORMALLY****
TOTAL RUN TIME: 0 days 0 hours 0 minutes 3 seconds 965 msec
