                         Program Version 4.2.0 -  RELEASE  -
|  1> #
|  2> # TMD15_TiBr ri-B2PLYP-D3BJ/Def2-TZVPPD
|  3> #
|  4> ! rijk ri-b2plyp d3bj def2-tzvppd def2/jk def2-tzvppd/c grid4 nofinalgrid
|  5>
|  6> *xyz 0 4
|  7> Ti       0.000000    0.000000   -1.485965
|  8> Br       0.000000    0.000000    0.934035
|  9> *
| 10>
| 11> %maxcore 5000
| 12>
| 13> %pal
| 14> nprocs = 24
| 15> end
| 16>
| 17>
| 18>                          ****END OF INPUT****

CARTESIAN COORDINATES (ANGSTROEM)
---------------------------------
  Ti     0.000000    0.000000   -1.485965
  Br     0.000000    0.000000    0.934035

 Total Charge           Charge          ....    0
 Multiplicity           Mult            ....    4
 Number of Electrons    NEL             ....   57
 Basis Dimension        Dim             ....  124

ORBITAL ENERGIES
----------------
                 SPIN UP ORBITALS
  NO   OCC          E(Eh)            E(eV)
   0   1.0000    -485.805877    -13219.4500
   1   1.0000    -180.689482     -4916.8108
   2   1.0000     -63.558267     -1729.5084
   3   1.0000     -57.180420     -1555.9583
   4   1.0000     -57.180231     -1555.9532
   5   1.0000     -57.180231     -1555.9532
   6   1.0000     -20.497406      -557.7628
   7   1.0000     -17.072784      -464.5741
   8   1.0000     -17.064768      -464.3559
   9   1.0000     -17.064768      -464.3559
  10   1.0000      -9.119232      -248.1469
  11   1.0000      -6.853115      -186.4827
  12   1.0000      -6.851866      -186.4488
  13   1.0000      -6.851866      -186.4488
  14   1.0000      -2.813629       -76.5627
  15   1.0000      -2.812978       -76.5450
  16   1.0000      -2.812978       -76.5450
  17   1.0000      -2.811777       -76.5123
  18   1.0000      -2.811759       -76.5118
  19   1.0000      -2.593486       -70.5724
  20   1.0000      -1.643057       -44.7098
  21   1.0000      -1.643057       -44.7098
  22   1.0000      -1.628164       -44.3046
  23   1.0000      -0.816086       -22.2068
  24   1.0000      -0.359187        -9.7740
  25   1.0000      -0.322619        -8.7789
  26   1.0000      -0.322619        -8.7789
  27   1.0000      -0.258098        -7.0232
  28   1.0000      -0.258097        -7.0232
  29   1.0000      -0.216538        -5.8923
  30   0.0000      -0.045004        -1.2246
  31   0.0000      -0.020698        -0.5632
  32   0.0000      -0.020698        -0.5632
  33   0.0000       0.025735         0.7003
  34   0.0000       0.025735         0.7003

                 SPIN DOWN ORBITALS
  NO   OCC          E(Eh)            E(eV)
   0   1.0000    -485.806074    -13219.4553
   1   1.0000    -180.688155     -4916.7747
   2   1.0000     -63.558363     -1729.5110
   3   1.0000     -57.180706     -1555.9661
   4   1.0000     -57.180400     -1555.9578
   5   1.0000     -57.180400     -1555.9578
   6   1.0000     -20.469479      -557.0028
   7   1.0000     -17.062216      -464.2865
   8   1.0000     -17.032036      -463.4653
   9   1.0000     -17.032036      -463.4653
  10   1.0000      -9.119553      -248.1557
  11   1.0000      -6.853700      -186.4987
  12   1.0000      -6.852224      -186.4585
  13   1.0000      -6.852224      -186.4585
  14   1.0000      -2.813913       -76.5705
  15   1.0000      -2.813289       -76.5535
  16   1.0000      -2.813289       -76.5535
  17   1.0000      -2.812000       -76.5184
  18   1.0000      -2.811981       -76.5179
  19   1.0000      -2.491878       -67.8075
  20   1.0000      -1.577871       -42.9361
  21   1.0000      -1.493781       -40.6479
  22   1.0000      -1.493781       -40.6479
  23   1.0000      -0.818477       -22.2719
  24   1.0000      -0.356885        -9.7113
  25   1.0000      -0.323725        -8.8090
  26   1.0000      -0.323725        -8.8090
  27   0.0000      -0.057845        -1.5740
  28   0.0000       0.007655         0.2083
  29   0.0000       0.007655         0.2083
  30   0.0000       0.009714         0.2643
  31   0.0000       0.046525         1.2660

MULLIKEN ATOMIC CHARGES AND SPIN POPULATIONS
--------------------------------------------
   0 Ti:    0.332552    3.041392
   1 Br:   -0.332552   -0.041392
Sum of atomic charges         :   -0.0000000

LOEWDIN ATOMIC CHARGES AND SPIN POPULATIONS
-------------------------------------------
   0 Ti:    0.067813    2.905717
   1 Br:   -0.067813    0.094283

  Mayer bond orders larger than 0.100000
B(  0-Ti,  1-Br) :   1.1066

MP2 TOTAL ENERGY:    -3423.044518185 Eh
Dispersion correction           -0.002017629
FINAL SINGLE POINT ENERGY     -3423.046535813758

DIPOLE MOMENT
-------------
                                X             Y             Z
Electronic contribution:     -0.00000       0.00000       0.90036
Nuclear contribution   :      0.00000       0.00000      -2.90920
                        -----------------------------------------
Total Dipole Moment    :     -0.00000       0.00000      -2.00884
                        -----------------------------------------
Magnitude (a.u.)       :      2.00884
Magnitude (Debye)      :      5.10607

Rotational constants in cm-1:     0.000000     0.096120     0.096120
Rotational constants in MHz :     0.000000  2881.611529  2881.611529

                             ****ORCA TERMINATED NORMALLY****
TOTAL RUN TIME: 0 days 0 hours 0 minutes 7 seconds 724 msec
