                         Program Version 4.2.0 -  RELEASE  -
|  1> #
|  2> # TMD24_ZnS ri-B2PLYP-D3BJ/Def2-TZVPPD
|  3> #
|  4> ! rijk ri-b2plyp d3bj def2-tzvppd def2/jk def2-tzvppd/c grid4 nofinalgrid
|  5>
|  6> *xyz 0 1
|  7> Zn       0.000000    0.000000    0.720000
|  8> S        0.000000    0.000000   -1.350000
|  9> *
| 10>
| 11> %maxcore 5000
| 12>
| 13> %pal
| 14> nprocs = 24
| 15> end
| 16>
| 17>
| 18>                          ****END OF INPUT****

CARTESIAN COORDINATES (ANGSTROEM)
---------------------------------
  Zn     0.000000    0.000000    0.720000
  S      0.000000    0.000000   -1.350000

 Total Charge           Charge          ....    0
 Multiplicity           Mult            ....    1
 Number of Electrons    NEL             ....   46
 Basis Dimension        Dim             ....  118

ORBITAL ENERGIES
----------------

  NO   OCC          E(Eh)            E(eV)
   0   2.0000    -349.861863     -9520.2253
   1   2.0000     -90.112974     -2452.0987
   2   2.0000     -43.173891     -1174.8213
   3   2.0000     -37.979733     -1033.4811
   4   2.0000     -37.979733     -1033.4811
   5   2.0000     -37.979081     -1033.4633
   6   2.0000      -8.316595      -226.3061
   7   2.0000      -6.164360      -167.7408
   8   2.0000      -6.157935      -167.5659
   9   2.0000      -6.157935      -167.5659
  10   2.0000      -5.232239      -142.3765
  11   2.0000      -3.546625       -96.5086
  12   2.0000      -3.543359       -96.4197
  13   2.0000      -3.543359       -96.4197
  14   2.0000      -0.750675       -20.4269
  15   2.0000      -0.685486       -18.6530
  16   2.0000      -0.685486       -18.6530
  17   2.0000      -0.680408       -18.5148
  18   2.0000      -0.680406       -18.5148
  19   2.0000      -0.659710       -17.9516
  20   2.0000      -0.345369        -9.3980
  21   2.0000      -0.269828        -7.3424
  22   2.0000      -0.269828        -7.3424
  23   0.0000      -0.117566        -3.1991
  24   0.0000      -0.003000        -0.0816
  25   0.0000      -0.003000        -0.0816
  26   0.0000       0.022506         0.6124
  27   0.0000       0.056973         1.5503

MULLIKEN ATOMIC CHARGES
-----------------------
   0 Zn:    0.330202
   1 S :   -0.330202
Sum of atomic charges:   -0.0000000

LOEWDIN ATOMIC CHARGES
----------------------
   0 Zn:    0.379959
   1 S :   -0.379959

  Mayer bond orders larger than 0.100000
B(  0-Zn,  1-S ) :   1.7064

MP2 TOTAL ENERGY:    -2177.258525391 Eh
Dispersion correction           -0.001557065
FINAL SINGLE POINT ENERGY     -2177.260082455351

DIPOLE MOMENT
-------------
                                X             Y             Z
Electronic contribution:     -0.00000      -0.00000       5.79138
Nuclear contribution   :      0.00000       0.00000      -3.38342
                        -----------------------------------------
Total Dipole Moment    :     -0.00000      -0.00000       2.40796
                        -----------------------------------------
Magnitude (a.u.)       :      2.40796
Magnitude (Debye)      :      6.12055

Rotational constants in cm-1:     0.000000     0.182888     0.182888
Rotational constants in MHz :     0.000000  5482.842292  5482.842292

                             ****ORCA TERMINATED NORMALLY****
TOTAL RUN TIME: 0 days 0 hours 0 minutes 5 seconds 54 msec
