                         Program Version 4.2.0 -  RELEASE  -
|  1> #
|  2> # TMD22_CoF ri-B2PLYP-D3BJ/Def2-TZVPPD
|  3> #
|  4> ! rijk ri-b2plyp d3bj def2-tzvppd def2/jk def2-tzvppd/c grid4 nofinalgrid
|  5>
|  6> *xyz 0 3
|  7> Co       0.000000    0.000000    0.440000
|  8> F        0.000000    0.000000   -1.320000
|  9> *
| 10>
| 11> %maxcore 5000
| 12>
| 13> %pal
| 14> nprocs = 24
| 15> end
| 16>
| 17>
| 18>                          ****END OF INPUT****

CARTESIAN COORDINATES (ANGSTROEM)
---------------------------------
  Co     0.000000    0.000000    0.440000
  F      0.000000    0.000000   -1.320000

 Total Charge           Charge          ....    0
 Multiplicity           Mult            ....    3
 Number of Electrons    NEL             ....   36
 Basis Dimension        Dim             ....  107

ORBITAL ENERGIES
----------------
                 SPIN UP ORBITALS
  NO   OCC          E(Eh)            E(eV)
   0   1.0000    -279.893563     -7616.2911
   1   1.0000     -33.759923      -918.6542
   2   1.0000     -29.251610      -795.9768
   3   1.0000     -29.243708      -795.7617
   4   1.0000     -29.218985      -795.0890
   5   1.0000     -25.271972      -687.6853
   6   1.0000      -4.196948      -114.2048
   7   1.0000      -2.837024       -77.1994
   8   1.0000      -2.826808       -76.9213
   9   1.0000      -2.770957       -75.4016
  10   1.0000      -1.248382       -33.9702
  11   1.0000      -0.579999       -15.7826
  12   1.0000      -0.576282       -15.6814
  13   1.0000      -0.540819       -14.7164
  14   1.0000      -0.517790       -14.0898
  15   1.0000      -0.500975       -13.6322
  16   1.0000      -0.432604       -11.7717
  17   1.0000      -0.427012       -11.6196
  18   1.0000      -0.417513       -11.3611
  19   0.0000      -0.084346        -2.2952
  20   0.0000       0.014054         0.3824
  21   0.0000       0.015414         0.4194
  22   0.0000       0.047158         1.2832
  23   0.0000       0.099472         2.7068

                 SPIN DOWN ORBITALS
  NO   OCC          E(Eh)            E(eV)
   0   1.0000    -279.893398     -7616.2866
   1   1.0000     -33.684828      -916.6108
   2   1.0000     -29.173800      -793.8595
   3   1.0000     -29.168389      -793.7122
   4   1.0000     -29.165218      -793.6259
   5   1.0000     -25.269132      -687.6080
   6   1.0000      -4.009825      -109.1129
   7   1.0000      -2.606723       -70.9325
   8   1.0000      -2.591094       -70.5073
   9   1.0000      -2.587889       -70.4200
  10   1.0000      -1.240371       -33.7522
  11   1.0000      -0.477258       -12.9869
  12   1.0000      -0.471963       -12.8428
  13   1.0000      -0.436868       -11.8878
  14   1.0000      -0.425612       -11.5815
  15   1.0000      -0.381654       -10.3853
  16   1.0000      -0.250132        -6.8064
  17   0.0000      -0.028558        -0.7771
  18   0.0000      -0.019640        -0.5344
  19   0.0000       0.001740         0.0474
  20   0.0000       0.027701         0.7538
  21   0.0000       0.031578         0.8593

MULLIKEN ATOMIC CHARGES AND SPIN POPULATIONS
--------------------------------------------
   0 Co:    0.690196    1.952006
   1 F :   -0.690196    0.047994
Sum of atomic charges         :   -0.0000000

LOEWDIN ATOMIC CHARGES AND SPIN POPULATIONS
-------------------------------------------
   0 Co:    0.638631    2.054283
   1 F :   -0.638631   -0.054283

  Mayer bond orders larger than 0.100000
B(  0-Co,  1-F ) :   0.6113

MP2 TOTAL ENERGY:    -1482.416378972 Eh
Dispersion correction           -0.000398102
FINAL SINGLE POINT ENERGY     -1482.416777073931

DIPOLE MOMENT
-------------
                                X             Y             Z
Electronic contribution:     -0.00000      -0.00000       2.21582
Nuclear contribution   :      0.00000       0.00000      -0.74365
                        -----------------------------------------
Total Dipole Moment    :     -0.00000      -0.00000       1.47217
                        -----------------------------------------
Magnitude (a.u.)       :      1.47217
Magnitude (Debye)      :      3.74197

Rotational constants in cm-1:     0.000000     0.378809     0.378809
Rotational constants in MHz :     0.000000 11356.420741 11356.420741

                             ****ORCA TERMINATED NORMALLY****
TOTAL RUN TIME: 0 days 0 hours 0 minutes 19 seconds 17 msec
