                         Program Version 4.2.0 -  RELEASE  -
|  1> #
|  2> # TMD20_FeS ri-B2PLYP-D3BJ/Def2-TZVPPD
|  3> #
|  4> ! rijk ri-b2plyp d3bj def2-tzvppd def2/jk def2-tzvppd/c grid4 nofinalgrid
|  5>
|  6> *xyz 0 5
|  7> Fe       0.000000    0.000000    0.769524
|  8> S        0.000000    0.000000   -1.250476
|  9> *
| 10>
| 11> %maxcore 5000
| 12>
| 13> %pal
| 14> nprocs = 24
| 15> end
| 16>
| 17>
| 18>                          ****END OF INPUT****

CARTESIAN COORDINATES (ANGSTROEM)
---------------------------------
  Fe     0.000000    0.000000    0.769524
  S      0.000000    0.000000   -1.250476

 Total Charge           Charge          ....    0
 Multiplicity           Mult            ....    5
 Number of Electrons    NEL             ....   42
 Basis Dimension        Dim             ....  118

ORBITAL ENERGIES
----------------
                 SPIN UP ORBITALS
  NO   OCC          E(Eh)            E(eV)
   0   1.0000    -258.336421     -7029.6914
   1   1.0000     -90.088468     -2451.4318
   2   1.0000     -30.893560      -840.6565
   3   1.0000     -26.609656      -724.0856
   4   1.0000     -26.582843      -723.3559
   5   1.0000     -26.582843      -723.3559
   6   1.0000      -8.294730      -225.7111
   7   1.0000      -6.138492      -167.0369
   8   1.0000      -6.138492      -167.0369
   9   1.0000      -6.136946      -166.9948
  10   1.0000      -3.900522      -106.1386
  11   1.0000      -2.647975       -72.0551
  12   1.0000      -2.586719       -70.3882
  13   1.0000      -2.586719       -70.3882
  14   1.0000      -0.718126       -19.5412
  15   1.0000      -0.531326       -14.4581
  16   1.0000      -0.531326       -14.4581
  17   1.0000      -0.520922       -14.1750
  18   1.0000      -0.503432       -13.6991
  19   1.0000      -0.461968       -12.5708
  20   1.0000      -0.293424        -7.9845
  21   1.0000      -0.259479        -7.0608
  22   1.0000      -0.259479        -7.0608
  23   0.0000      -0.095325        -2.5939
  24   0.0000       0.003956         0.1077
  25   0.0000       0.003956         0.1077
  26   0.0000       0.039740         1.0814
  27   0.0000       0.076904         2.0927

                 SPIN DOWN ORBITALS
  NO   OCC          E(Eh)            E(eV)
   0   1.0000    -258.333734     -7029.6183
   1   1.0000     -90.089043     -2451.4475
   2   1.0000     -30.804801      -838.2412
   3   1.0000     -26.517822      -721.5866
   4   1.0000     -26.508151      -721.3235
   5   1.0000     -26.508151      -721.3235
   6   1.0000      -8.295204      -225.7240
   7   1.0000      -6.144294      -167.1947
   8   1.0000      -6.136398      -166.9799
   9   1.0000      -6.136398      -166.9799
  10   1.0000      -3.665423       -99.7412
  11   1.0000      -2.344353       -63.7931
  12   1.0000      -2.344353       -63.7931
  13   1.0000      -2.334152       -63.5155
  14   1.0000      -0.719090       -19.5674
  15   1.0000      -0.364498        -9.9185
  16   1.0000      -0.335988        -9.1427
  17   1.0000      -0.272907        -7.4262
  18   1.0000      -0.272907        -7.4262
  19   0.0000      -0.084617        -2.3026
  20   0.0000      -0.015545        -0.4230
  21   0.0000      -0.008761        -0.2384
  22   0.0000      -0.008761        -0.2384
  23   0.0000       0.041122         1.1190

MULLIKEN ATOMIC CHARGES AND SPIN POPULATIONS
--------------------------------------------
   0 Fe:    0.500313    4.040141
   1 S :   -0.500313   -0.040141
Sum of atomic charges         :   -0.0000000

LOEWDIN ATOMIC CHARGES AND SPIN POPULATIONS
-------------------------------------------
   0 Fe:    0.218343    3.867190
   1 S :   -0.218343    0.132810

  Mayer bond orders larger than 0.100000
B(  0-Fe,  1-S ) :   1.8998

MP2 TOTAL ENERGY:    -1661.598754091 Eh
Dispersion correction           -0.001513225
FINAL SINGLE POINT ENERGY     -1661.600267315827

DIPOLE MOMENT
-------------
                                X             Y             Z
Electronic contribution:     -0.00000      -0.00000       5.23680
Nuclear contribution   :      0.00000       0.00000      -2.60707
                        -----------------------------------------
Total Dipole Moment    :     -0.00000      -0.00000       2.62973
                        -----------------------------------------
Magnitude (a.u.)       :      2.62973
Magnitude (Debye)      :      6.68424

Rotational constants in cm-1:     0.000000     0.202836     0.202836
Rotational constants in MHz :     0.000000  6080.880231  6080.880231

                             ****ORCA TERMINATED NORMALLY****
TOTAL RUN TIME: 0 days 0 hours 0 minutes 5 seconds 809 msec
