                         Program Version 4.2.0 -  RELEASE  -
|  1> #
|  2> # TMD21_CoH ri-B2PLYP-D3BJ/Def2-TZVPPD
|  3> #
|  4> ! rijk ri-b2plyp d3bj def2-tzvppd def2/jk def2-tzvppd/c grid4 nofinalgrid
|  5>
|  6> *xyz 0 3
|  7> Co       0.000000    0.000000    0.053929
|  8> H        0.000000    0.000000   -1.456071
|  9> *
| 10>
| 11> %maxcore 5000
| 12>
| 13> %pal
| 14> nprocs = 24
| 15> end
| 16>
| 17>
| 18>                          ****END OF INPUT****

CARTESIAN COORDINATES (ANGSTROEM)
---------------------------------
  Co     0.000000    0.000000    0.053929
  H      0.000000    0.000000   -1.456071

 Total Charge           Charge          ....    0
 Multiplicity           Mult            ....    3
 Number of Electrons    NEL             ....   28
 Basis Dimension        Dim             ....   84

ORBITAL ENERGIES
----------------
                 SPIN UP ORBITALS
  NO   OCC          E(Eh)            E(eV)
   0   1.0000    -279.726600     -7611.7477
   1   1.0000     -33.564006      -913.3230
   2   1.0000     -29.045027      -790.3554
   3   1.0000     -29.045027      -790.3554
   4   1.0000     -29.043824      -790.3226
   5   1.0000      -3.986993      -108.4916
   6   1.0000      -2.601476       -70.7898
   7   1.0000      -2.600467       -70.7623
   8   1.0000      -2.600467       -70.7623
   9   1.0000      -0.378718       -10.3055
  10   1.0000      -0.364422        -9.9164
  11   1.0000      -0.324037        -8.8175
  12   1.0000      -0.324037        -8.8175
  13   1.0000      -0.321236        -8.7413
  14   1.0000      -0.261698        -7.1212
  15   0.0000      -0.033848        -0.9211
  16   0.0000       0.016307         0.4437
  17   0.0000       0.016307         0.4437
  18   0.0000       0.096933         2.6377
  19   0.0000       0.109522         2.9802

                 SPIN DOWN ORBITALS
  NO   OCC          E(Eh)            E(eV)
   0   1.0000    -279.725283     -7611.7119
   1   1.0000     -33.516001      -912.0168
   2   1.0000     -29.003413      -789.2230
   3   1.0000     -29.000602      -789.1465
   4   1.0000     -29.000602      -789.1465
   5   1.0000      -3.863028      -105.1183
   6   1.0000      -2.462303       -67.0027
   7   1.0000      -2.459053       -66.9142
   8   1.0000      -2.459053       -66.9142
   9   1.0000      -0.323110        -8.7923
  10   1.0000      -0.273869        -7.4524
  11   1.0000      -0.272976        -7.4281
  12   1.0000      -0.272976        -7.4281
  13   0.0000      -0.038767        -1.0549
  14   0.0000       0.023744         0.6461
  15   0.0000       0.023744         0.6461
  16   0.0000       0.061655         1.6777
  17   0.0000       0.115954         3.1553

MULLIKEN ATOMIC CHARGES AND SPIN POPULATIONS
--------------------------------------------
   0 Co:    0.146497    2.160965
   1 H :   -0.146497   -0.160965
Sum of atomic charges         :   -0.0000000

LOEWDIN ATOMIC CHARGES AND SPIN POPULATIONS
-------------------------------------------
   0 Co:    0.245967    2.045450
   1 H :   -0.245967   -0.045450

  Mayer bond orders larger than 0.100000
B(  0-Co,  1-H ) :   0.9465

MP2 TOTAL ENERGY:    -1383.139232413 Eh
Dispersion correction           -0.000348871
FINAL SINGLE POINT ENERGY     -1383.139581284004

DIPOLE MOMENT
-------------
                                X             Y             Z
Electronic contribution:     -0.00000      -0.00000       2.86935
Nuclear contribution   :      0.00000       0.00000      -1.50982
                        -----------------------------------------
Total Dipole Moment    :     -0.00000      -0.00000       1.35953
                        -----------------------------------------
Magnitude (a.u.)       :      1.35953
Magnitude (Debye)      :      3.45566

Rotational constants in cm-1:     0.000000     7.460162     7.460162
Rotational constants in MHz :     0.000000 223650.041735 223650.041735

                             ****ORCA TERMINATED NORMALLY****
TOTAL RUN TIME: 0 days 0 hours 0 minutes 4 seconds 350 msec
