                         Program Version 4.2.0 -  RELEASE  -
|  1> #
|  2> # TMD23_CuBr ri-B2PLYP-D3BJ/Def2-TZVPPD
|  3> #
|  4> ! rijk ri-b2plyp d3bj def2-tzvppd def2/jk def2-tzvppd/c grid4 nofinalgrid
|  5>
|  6> *xyz 0 1
|  7> Cu       0.000000    0.000000   -1.208594
|  8> Br       0.000000    0.000000    1.001406
|  9> *
| 10>
| 11> %maxcore 5000
| 12>
| 13> %pal
| 14> nprocs = 24
| 15> end
| 16>
| 17>
| 18>                          ****END OF INPUT****

CARTESIAN COORDINATES (ANGSTROEM)
---------------------------------
  Cu     0.000000    0.000000   -1.208594
  Br     0.000000    0.000000    1.001406

 Total Charge           Charge          ....    0
 Multiplicity           Mult            ....    1
 Number of Electrons    NEL             ....   64
 Basis Dimension        Dim             ....  124

ORBITAL ENERGIES
----------------

  NO   OCC          E(Eh)            E(eV)
   0   2.0000    -485.803232    -13219.3780
   1   2.0000    -325.469942     -8856.4874
   2   2.0000     -63.555046     -1729.4207
   3   2.0000     -57.177907     -1555.8900
   4   2.0000     -57.176809     -1555.8601
   5   2.0000     -57.176809     -1555.8601
   6   2.0000     -39.678446     -1079.7054
   7   2.0000     -34.714573      -944.6316
   8   2.0000     -34.714573      -944.6316
   9   2.0000     -34.713411      -944.5999
  10   2.0000      -9.115830      -248.0543
  11   2.0000      -6.851711      -186.4445
  12   2.0000      -6.847449      -186.3286
  13   2.0000      -6.847449      -186.3286
  14   2.0000      -4.630535      -126.0033
  15   2.0000      -3.051871       -83.0456
  16   2.0000      -3.047962       -82.9393
  17   2.0000      -3.047962       -82.9393
  18   2.0000      -2.811925       -76.5164
  19   2.0000      -2.810399       -76.4748
  20   2.0000      -2.810399       -76.4748
  21   2.0000      -2.806488       -76.3684
  22   2.0000      -2.806469       -76.3679
  23   2.0000      -0.812850       -22.1188
  24   2.0000      -0.422926       -11.5084
  25   2.0000      -0.416158       -11.3242
  26   2.0000      -0.416158       -11.3242
  27   2.0000      -0.404890       -11.0176
  28   2.0000      -0.404888       -11.0176
  29   2.0000      -0.330122        -8.9831
  30   2.0000      -0.303513        -8.2590
  31   2.0000      -0.303513        -8.2590
  32   0.0000      -0.073779        -2.0076
  33   0.0000       0.020145         0.5482
  34   0.0000       0.020145         0.5482
  35   0.0000       0.040152         1.0926
  36   0.0000       0.079001         2.1497

MULLIKEN ATOMIC CHARGES
-----------------------
   0 Cu:    0.288269
   1 Br:   -0.288269
Sum of atomic charges:   -0.0000000

LOEWDIN ATOMIC CHARGES
----------------------
   0 Cu:    0.034253
   1 Br:   -0.034253

  Mayer bond orders larger than 0.100000
B(  0-Cu,  1-Br) :   1.0756

MP2 TOTAL ENERGY:    -4214.168562259 Eh
Dispersion correction           -0.001445734
FINAL SINGLE POINT ENERGY     -4214.170007993143

DIPOLE MOMENT
-------------
                                X             Y             Z
Electronic contribution:      0.00000       0.00000       0.50512
Nuclear contribution   :      0.00000       0.00000      -2.70316
                        -----------------------------------------
Total Dipole Moment    :      0.00000       0.00000      -2.19805
                        -----------------------------------------
Magnitude (a.u.)       :      2.19805
Magnitude (Debye)      :      5.58699

Rotational constants in cm-1:     0.000000     0.097510     0.097510
Rotational constants in MHz :     0.000000  2923.285786  2923.285786

                             ****ORCA TERMINATED NORMALLY****
TOTAL RUN TIME: 0 days 0 hours 0 minutes 4 seconds 878 msec
