                         Program Version 4.2.0 -  RELEASE  -
|  1> #
|  2> # MOR04_c2h6 TPSSh-D3BJ/Def2-TZVPPD
|  3> #
|  4> ! tpssh d3bj def2-tzvppd def2/jk grid4 nofinalgrid
|  5>
|  6> *xyz 0 1
|  7> C       -0.765850   -0.000004    0.000000
|  8> C        0.765850    0.000004    0.000000
|  9> H       -1.162381   -1.020936   -0.022850
| 10> H       -1.162409    0.530251   -0.872720
| 11> H       -1.162411    0.490675    0.895568
| 12> H        1.162410   -0.530239    0.872727
| 13> H        1.162411   -0.490686   -0.895561
| 14> H        1.162381    1.020936    0.022836
| 15> *
| 16>
| 17> %maxcore 5000
| 18>
| 19> %pal
| 20> nprocs = 24
| 21> end
| 22>
| 23>
| 24>                          ****END OF INPUT****

CARTESIAN COORDINATES (ANGSTROEM)
---------------------------------
  C     -0.765850   -0.000004    0.000000
  C      0.765850    0.000004    0.000000
  H     -1.162381   -1.020936   -0.022850
  H     -1.162409    0.530251   -0.872720
  H     -1.162411    0.490675    0.895568
  H      1.162410   -0.530239    0.872727
  H      1.162411   -0.490686   -0.895561
  H      1.162381    1.020936    0.022836

 Total Charge           Charge          ....    0
 Multiplicity           Mult            ....    1
 Number of Electrons    NEL             ....   18
 Basis Dimension        Dim             ....  176

ORBITAL ENERGIES
----------------

  NO   OCC          E(Eh)            E(eV)
   0   2.0000     -10.100927      -274.8602
   1   2.0000     -10.100759      -274.8556
   2   2.0000      -0.731678       -19.9100
   3   2.0000      -0.597231       -16.2515
   4   2.0000      -0.416900       -11.3444
   5   2.0000      -0.416896       -11.3443
   6   2.0000      -0.348983        -9.4963
   7   2.0000      -0.327843        -8.9211
   8   2.0000      -0.327840        -8.9210
   9   0.0000       0.010883         0.2962
  10   0.0000       0.035498         0.9660
  11   0.0000       0.071934         1.9574
  12   0.0000       0.071954         1.9580
  13   0.0000       0.096077         2.6144

MULLIKEN ATOMIC CHARGES
-----------------------
   0 C :   -0.101223
   1 C :   -0.101234
   2 H :    0.033612
   3 H :    0.033791
   4 H :    0.033819
   5 H :    0.033790
   6 H :    0.033824
   7 H :    0.033621
Sum of atomic charges:    0.0000000

LOEWDIN ATOMIC CHARGES
----------------------
   0 C :    0.083691
   1 C :    0.083691
   2 H :   -0.027900
   3 H :   -0.027896
   4 H :   -0.027895
   5 H :   -0.027896
   6 H :   -0.027896
   7 H :   -0.027900

  Mayer bond orders larger than 0.100000
B(  0-C ,  1-C ) :   0.9534 B(  0-C ,  2-H ) :   1.0011 B(  0-C ,  3-H ) :   1.0017
B(  0-C ,  4-H ) :   1.0016 B(  1-C ,  5-H ) :   1.0017 B(  1-C ,  6-H ) :   1.0016
B(  1-C ,  7-H ) :   1.0011

Dispersion correction           -0.003537349
FINAL SINGLE POINT ENERGY       -79.871267344235

DIPOLE MOMENT
-------------
                                X             Y             Z
Electronic contribution:     -0.00000      -0.00000      -0.00000
Nuclear contribution   :      0.00000       0.00000      -0.00000
                        -----------------------------------------
Total Dipole Moment    :      0.00000       0.00000      -0.00000
                        -----------------------------------------
Magnitude (a.u.)       :      0.00000
Magnitude (Debye)      :      0.00000

Rotational constants in cm-1:     2.672873     0.663298     0.663297
Rotational constants in MHz : 80130.723455 19885.185427 19885.132514

                             ****ORCA TERMINATED NORMALLY****
TOTAL RUN TIME: 0 days 0 hours 0 minutes 4 seconds 894 msec
