                         Program Version 4.2.0 -  RELEASE  -
|  1> #
|  2> # MOR05_co TPSSh-D3BJ/Def2-TZVPPD
|  3> #
|  4> ! tpssh d3bj def2-tzvppd def2/jk grid4 nofinalgrid
|  5>
|  6> *xyz 0 1
|  7> O        0.000000    0.000000    0.486237
|  8> C        0.000000    0.000000   -0.648315
|  9> *
| 10>
| 11> %maxcore 5000
| 12>
| 13> %pal
| 14> nprocs = 24
| 15> end
| 16>
| 17>
| 18>                          ****END OF INPUT****

CARTESIAN COORDINATES (ANGSTROEM)
---------------------------------
  O      0.000000    0.000000    0.486237
  C      0.000000    0.000000   -0.648315

 Total Charge           Charge          ....    0
 Multiplicity           Mult            ....    1
 Number of Electrons    NEL             ....   14
 Basis Dimension        Dim             ....   77

ORBITAL ENERGIES
----------------

  NO   OCC          E(Eh)            E(eV)
   0   2.0000     -19.159906      -521.3675
   1   2.0000     -10.229706      -278.3644
   2   2.0000      -1.138760       -30.9872
   3   2.0000      -0.558651       -15.2017
   4   2.0000      -0.458504       -12.4765
   5   2.0000      -0.458504       -12.4765
   6   2.0000      -0.364949        -9.9308
   7   0.0000      -0.050226        -1.3667
   8   0.0000      -0.050226        -1.3667
   9   0.0000       0.029249         0.7959
  10   0.0000       0.069897         1.9020
  11   0.0000       0.070047         1.9061

MULLIKEN ATOMIC CHARGES
-----------------------
   0 O :   -0.077398
   1 C :    0.077398
Sum of atomic charges:   -0.0000000

LOEWDIN ATOMIC CHARGES
----------------------
   0 O :    0.013238
   1 C :   -0.013238

  Mayer bond orders larger than 0.100000
B(  0-O ,  1-C ) :   2.3730

Dispersion correction           -0.000453214
FINAL SINGLE POINT ENERGY      -113.360349980548

DIPOLE MOMENT
-------------
                                X             Y             Z
Electronic contribution:      0.00000      -0.00000       0.04165
Nuclear contribution   :      0.00000       0.00000       0.00720
                        -----------------------------------------
Total Dipole Moment    :      0.00000      -0.00000       0.04885
                        -----------------------------------------
Magnitude (a.u.)       :      0.04885
Magnitude (Debye)      :      0.12416

Rotational constants in cm-1:     0.000000     1.908926     1.908926
Rotational constants in MHz :     0.000000 57228.174924 57228.174924

                             ****ORCA TERMINATED NORMALLY****
TOTAL RUN TIME: 0 days 0 hours 0 minutes 2 seconds 895 msec
