                         Program Version 4.2.0 -  RELEASE  -
|  1> #
|  2> # MOR02_bz TPSSh-D3BJ/Def2-TZVPPD
|  3> #
|  4> ! tpssh d3bj def2-tzvppd def2/jk grid4 nofinalgrid
|  5>
|  6> *xyz 0 1
|  7> C        1.391947    0.103893   -0.000005
|  8> C        0.785946   -1.153510   -0.000002
|  9> C       -0.605997   -1.257403   -0.000005
| 10> C       -1.391947   -0.103892   -0.000002
| 11> C       -0.785947    1.153509   -0.000006
| 12> C        0.605998    1.257403   -0.000002
| 13> H        2.475503    0.184769    0.000018
| 14> H        1.397775   -2.051448    0.000027
| 15> H       -1.077745   -2.236217    0.000018
| 16> H       -2.475502   -0.184774    0.000031
| 17> H       -1.397773    2.051449    0.000014
| 18> H        1.077742    2.236219    0.000031
| 19> *
| 20>
| 21> %maxcore 5000
| 22>
| 23> %pal
| 24> nprocs = 24
| 25> end
| 26>
| 27>
| 28>                          ****END OF INPUT****

CARTESIAN COORDINATES (ANGSTROEM)
---------------------------------
  C      1.391947    0.103893   -0.000005
  C      0.785946   -1.153510   -0.000002
  C     -0.605997   -1.257403   -0.000005
  C     -1.391947   -0.103892   -0.000002
  C     -0.785947    1.153509   -0.000006
  C      0.605998    1.257403   -0.000002
  H      2.475503    0.184769    0.000018
  H      1.397775   -2.051448    0.000027
  H     -1.077745   -2.236217    0.000018
  H     -2.475502   -0.184774    0.000031
  H     -1.397773    2.051449    0.000014
  H      1.077742    2.236219    0.000031

 Total Charge           Charge          ....    0
 Multiplicity           Mult            ....    1
 Number of Electrons    NEL             ....   42
 Basis Dimension        Dim             ....  324

ORBITAL ENERGIES
----------------

  NO   OCC          E(Eh)            E(eV)
   0   2.0000     -10.117597      -275.3138
   1   2.0000     -10.117373      -275.3077
   2   2.0000     -10.117372      -275.3077
   3   2.0000     -10.116896      -275.2947
   4   2.0000     -10.116895      -275.2947
   5   2.0000     -10.116663      -275.2884
   6   2.0000      -0.832963       -22.6661
   7   2.0000      -0.726382       -19.7659
   8   2.0000      -0.726381       -19.7658
   9   2.0000      -0.584709       -15.9108
  10   2.0000      -0.584708       -15.9107
  11   2.0000      -0.506682       -13.7875
  12   2.0000      -0.447235       -12.1699
  13   2.0000      -0.426031       -11.5929
  14   2.0000      -0.404599       -11.0097
  15   2.0000      -0.404597       -11.0097
  16   2.0000      -0.354901        -9.6573
  17   2.0000      -0.327995        -8.9252
  18   2.0000      -0.327991        -8.9251
  19   2.0000      -0.245530        -6.6812
  20   2.0000      -0.245529        -6.6812
  21   0.0000      -0.024338        -0.6623
  22   0.0000      -0.024333        -0.6621
  23   0.0000       0.008270         0.2250
  24   0.0000       0.030582         0.8322
  25   0.0000       0.030637         0.8337

MULLIKEN ATOMIC CHARGES
-----------------------
   0 C :   -0.066979
   1 C :   -0.065178
   2 C :   -0.068166
   3 C :   -0.066944
   4 C :   -0.064623
   5 C :   -0.067720
   6 H :    0.066652
   7 H :    0.066900
   8 H :    0.066227
   9 H :    0.066598
  10 H :    0.066956
  11 H :    0.066277
Sum of atomic charges:    0.0000000

LOEWDIN ATOMIC CHARGES
----------------------
   0 C :    0.004249
   1 C :    0.004261
   2 C :    0.004252
   3 C :    0.004249
   4 C :    0.004261
   5 C :    0.004253
   6 H :   -0.004254
   7 H :   -0.004252
   8 H :   -0.004256
   9 H :   -0.004254
  10 H :   -0.004252
  11 H :   -0.004256

  Mayer bond orders larger than 0.100000
B(  0-C ,  1-C ) :   1.2130 B(  0-C ,  5-C ) :   1.2126 B(  0-C ,  6-H ) :   1.0506
B(  1-C ,  2-C ) :   1.2175 B(  1-C ,  7-H ) :   1.0500 B(  2-C ,  3-C ) :   1.2118
B(  2-C ,  8-H ) :   1.0502 B(  3-C ,  4-C ) :   1.2128 B(  3-C ,  9-H ) :   1.0507
B(  4-C ,  5-C ) :   1.2170 B(  4-C , 10-H ) :   1.0497 B(  5-C , 11-H ) :   1.0500

Dispersion correction           -0.012521814
FINAL SINGLE POINT ENERGY      -232.364954527199

DIPOLE MOMENT
-------------
                                X             Y             Z
Electronic contribution:     -0.00000       0.00000      -0.00010
Nuclear contribution   :      0.00000      -0.00000       0.00014
                        -----------------------------------------
Total Dipole Moment    :     -0.00000      -0.00000       0.00004
                        -----------------------------------------
Magnitude (a.u.)       :      0.00004
Magnitude (Debye)      :      0.00010

Rotational constants in cm-1:     0.189759     0.189757     0.094879
Rotational constants in MHz :  5688.823776  5688.770067  2844.398461

                             ****ORCA TERMINATED NORMALLY****
TOTAL RUN TIME: 0 days 0 hours 0 minutes 19 seconds 98 msec
