                         Program Version 4.2.0 -  RELEASE  -
|  1> #
|  2> # MOR03_c2h4 TPSSh-D3BJ/Def2-TZVPPD
|  3> #
|  4> ! tpssh d3bj def2-tzvppd def2/jk grid4 nofinalgrid
|  5>
|  6> *xyz 0 1
|  7> C        0.000000    0.665348   -0.000001
|  8> C        0.000000   -0.665348   -0.000001
|  9> H       -0.924311    1.237390    0.000003
| 10> H        0.924311    1.237390    0.000003
| 11> H        0.924311   -1.237390    0.000003
| 12> H       -0.924311   -1.237390    0.000003
| 13> *
| 14>
| 15> %maxcore 5000
| 16>
| 17> %pal
| 18> nprocs = 24
| 19> end
| 20>
| 21>
| 22>                          ****END OF INPUT****

CARTESIAN COORDINATES (ANGSTROEM)
---------------------------------
  C      0.000000    0.665348   -0.000001
  C      0.000000   -0.665348   -0.000001
  H     -0.924311    1.237390    0.000003
  H      0.924311    1.237390    0.000003
  H      0.924311   -1.237390    0.000003
  H     -0.924311   -1.237390    0.000003

 Total Charge           Charge          ....    0
 Multiplicity           Mult            ....    1
 Number of Electrons    NEL             ....   16
 Basis Dimension        Dim             ....  142

ORBITAL ENERGIES
----------------

  NO   OCC          E(Eh)            E(eV)
   0   2.0000     -10.113855      -275.2120
   1   2.0000     -10.113062      -275.1904
   2   2.0000      -0.742558       -20.2060
   3   2.0000      -0.565312       -15.3829
   4   2.0000      -0.453435       -12.3386
   5   2.0000      -0.403544       -10.9810
   6   2.0000      -0.342208        -9.3120
   7   2.0000      -0.264388        -7.1944
   8   0.0000      -0.014758        -0.4016
   9   0.0000       0.018621         0.5067
  10   0.0000       0.036730         0.9995
  11   0.0000       0.062390         1.6977
  12   0.0000       0.106268         2.8917

MULLIKEN ATOMIC CHARGES
-----------------------
   0 C :   -0.127558
   1 C :   -0.127541
   2 H :    0.063769
   3 H :    0.063776
   4 H :    0.063776
   5 H :    0.063779
Sum of atomic charges:    0.0000000

LOEWDIN ATOMIC CHARGES
----------------------
   0 C :    0.102554
   1 C :    0.102554
   2 H :   -0.051277
   3 H :   -0.051277
   4 H :   -0.051277
   5 H :   -0.051277

  Mayer bond orders larger than 0.100000
B(  0-C ,  1-C ) :   1.8264 B(  0-C ,  2-H ) :   1.0150 B(  0-C ,  3-H ) :   1.0150
B(  1-C ,  4-H ) :   1.0150 B(  1-C ,  5-H ) :   1.0149

Dispersion correction           -0.002540546
FINAL SINGLE POINT ENERGY       -78.628404214213

DIPOLE MOMENT
-------------
                                X             Y             Z
Electronic contribution:      0.00000       0.00000      -0.00001
Nuclear contribution   :      0.00000       0.00000       0.00001
                        -----------------------------------------
Total Dipole Moment    :      0.00000       0.00000       0.00000
                        -----------------------------------------
Magnitude (a.u.)       :      0.00000
Magnitude (Debye)      :      0.00001

Rotational constants in cm-1:     4.893731     1.002967     0.832372
Rotational constants in MHz : 146710.378489 30068.182911 24953.899728

                             ****ORCA TERMINATED NORMALLY****
TOTAL RUN TIME: 0 days 0 hours 0 minutes 3 seconds 758 msec
