                         Program Version 4.2.0 -  RELEASE  -
|  1> #
|  2> # MOR09_ed07 TPSSh-D3BJ/Def2-TZVPPD
|  3> #
|  4> ! tpssh d3bj def2-tzvppd def2/jk grid4 nofinalgrid
|  5>
|  6> *xyz 0 1
|  7> W        0.102077    0.091078   -0.092267
|  8> C        0.117393   -1.847063   -0.698289
|  9> O        0.106421   -2.944423   -1.101491
| 10> C        0.053830    0.623127   -1.953542
| 11> O        0.062184    0.954188   -3.084324
| 12> C       -0.079789    2.065684    0.368043
| 13> O       -0.241835    3.206144    0.563164
| 14> P       -2.374272   -0.093775    0.152024
| 15> C       -2.924700   -0.636961    1.860300
| 16> H       -4.020662   -0.654132    1.869520
| 17> C       -3.301587    1.526034   -0.042070
| 18> H       -2.720709    2.174283    0.626552
| 19> C       -3.158465   -1.412689   -0.926528
| 20> H       -2.602719   -2.298136   -0.589541
| 21> C        3.533012   -1.160075   -0.926747
| 22> P        2.541683   -0.047968    0.198665
| 23> H        3.436930   -0.493420    2.480788
| 24> H        3.117150   -2.146572   -0.686664
| 25> C        3.597094    1.476716    0.423185
| 26> H        4.630625    1.133957    0.560412
| 27> C       -3.162167    2.103519   -1.458162
| 28> H       -3.455722    3.159421   -1.453162
| 29> H       -3.815975    1.580772   -2.162650
| 30> H       -2.136423    2.033109   -1.825887
| 31> C       -4.764402    1.570333    0.422322
| 32> H       -5.415801    0.983387   -0.229568
| 33> H       -5.116762    2.608723    0.390691
| 34> H       -4.893747    1.210688    1.447022
| 35> C       -4.655036   -1.682881   -0.716884
| 36> H       -4.925909   -1.790522    0.337405
| 37> H       -4.929224   -2.613829   -1.227923
| 38> H       -5.265149   -0.883893   -1.147063
| 39> C       -2.846467   -1.236186   -2.419424
| 40> H       -3.119249   -2.151958   -2.956758
| 41> H       -1.787229   -1.039228   -2.589757
| 42> H       -3.419310   -0.412085   -2.852792
| 43> C       -2.418211   -2.050160    2.179041
| 44> H       -2.879973   -2.804800    1.536232
| 45> H       -2.649558   -2.306479    3.219697
| 46> H       -1.332968   -2.120913    2.045449
| 47> C       -2.447309    0.375917    2.910548
| 48> H       -1.357998    0.484909    2.881372
| 49> H       -2.729985    0.039964    3.915237
| 50> H       -2.881675    1.366975    2.750689
| 51> C        5.039293   -1.175311   -0.637409
| 52> H        5.257150   -1.324613    0.425881
| 53> H        5.510398   -0.237807   -0.951034
| 54> H        5.518847   -1.987312   -1.196567
| 55> C        3.236493   -0.904929   -2.411567
| 56> H        3.640990    0.053418   -2.749243
| 57> C        1.267139   -0.464900    2.531536
| 58> H        2.161630   -0.902783   -2.603826
| 59> H        3.697388   -1.694627   -3.016368
| 60> C        2.697601   -2.411104    1.824913
| 61> H        0.411078   -0.840608    1.910182
| 62> H        1.101298   -0.955345    3.499474
| 63> H        1.182937    0.613220    2.672323
| 64> C        2.601288   -0.882352    1.885247
| 65> H        2.586441   -2.826896    2.833616
| 66> H        3.659680   -2.747270    1.429848
| 67> H        1.903309   -2.831808    1.199333
| 68> C        3.181998    2.276906    1.664687
| 69> H        2.135318    2.587016    1.600131
| 70> H        3.793597    3.184158    1.733044
| 71> H        3.324478    1.710719    2.590306
| 72> C        3.508784    2.354763   -0.833649
| 73> H        2.465553    2.610163   -1.046808
| 74> H        3.919372    1.854332   -1.714343
| 75> H        4.068793    3.284623   -0.679973
| 76> *
| 77>
| 78> %maxcore 5000
| 79>
| 80> %pal
| 81> nprocs = 24
| 82> end
| 83>
| 84>
| 85>                          ****END OF INPUT****

CARTESIAN COORDINATES (ANGSTROEM)
---------------------------------
  W      0.102077    0.091078   -0.092267
  C      0.117393   -1.847063   -0.698289
  O      0.106421   -2.944423   -1.101491
  C      0.053830    0.623127   -1.953542
  O      0.062184    0.954188   -3.084324
  C     -0.079789    2.065684    0.368043
  O     -0.241835    3.206144    0.563164
  P     -2.374272   -0.093775    0.152024
  C     -2.924700   -0.636961    1.860300
  H     -4.020662   -0.654132    1.869520
  C     -3.301587    1.526034   -0.042070
  H     -2.720709    2.174283    0.626552
  C     -3.158465   -1.412689   -0.926528
  H     -2.602719   -2.298136   -0.589541
  C      3.533012   -1.160075   -0.926747
  P      2.541683   -0.047968    0.198665
  H      3.436930   -0.493420    2.480788
  H      3.117150   -2.146572   -0.686664
  C      3.597094    1.476716    0.423185
  H      4.630625    1.133957    0.560412
  C     -3.162167    2.103519   -1.458162
  H     -3.455722    3.159421   -1.453162
  H     -3.815975    1.580772   -2.162650
  H     -2.136423    2.033109   -1.825887
  C     -4.764402    1.570333    0.422322
  H     -5.415801    0.983387   -0.229568
  H     -5.116762    2.608723    0.390691
  H     -4.893747    1.210688    1.447022
  C     -4.655036   -1.682881   -0.716884
  H     -4.925909   -1.790522    0.337405
  H     -4.929224   -2.613829   -1.227923
  H     -5.265149   -0.883893   -1.147063
  C     -2.846467   -1.236186   -2.419424
  H     -3.119249   -2.151958   -2.956758
  H     -1.787229   -1.039228   -2.589757
  H     -3.419310   -0.412085   -2.852792
  C     -2.418211   -2.050160    2.179041
  H     -2.879973   -2.804800    1.536232
  H     -2.649558   -2.306479    3.219697
  H     -1.332968   -2.120913    2.045449
  C     -2.447309    0.375917    2.910548
  H     -1.357998    0.484909    2.881372
  H     -2.729985    0.039964    3.915237
  H     -2.881675    1.366975    2.750689
  C      5.039293   -1.175311   -0.637409
  H      5.257150   -1.324613    0.425881
  H      5.510398   -0.237807   -0.951034
  H      5.518847   -1.987312   -1.196567
  C      3.236493   -0.904929   -2.411567
  H      3.640990    0.053418   -2.749243
  C      1.267139   -0.464900    2.531536
  H      2.161630   -0.902783   -2.603826
  H      3.697388   -1.694627   -3.016368
  C      2.697601   -2.411104    1.824913
  H      0.411078   -0.840608    1.910182
  H      1.101298   -0.955345    3.499474
  H      1.182937    0.613220    2.672323
  C      2.601288   -0.882352    1.885247
  H      2.586441   -2.826896    2.833616
  H      3.659680   -2.747270    1.429848
  H      1.903309   -2.831808    1.199333
  C      3.181998    2.276906    1.664687
  H      2.135318    2.587016    1.600131
  H      3.793597    3.184158    1.733044
  H      3.324478    1.710719    2.590306
  C      3.508784    2.354763   -0.833649
  H      2.465553    2.610163   -1.046808
  H      3.919372    1.854332   -1.714343
  H      4.068793    3.284623   -0.679973

 Total Charge           Charge          ....    0
 Multiplicity           Mult            ....    1
 Number of Electrons    NEL             ....  236
 Basis Dimension        Dim             .... 1766

ORBITAL ENERGIES
----------------

  NO   OCC          E(Eh)            E(eV)
   0   2.0000     -76.932643     -2093.4436
   1   2.0000     -76.930174     -2093.3764
   2   2.0000     -19.091078      -519.4946
   3   2.0000     -19.090022      -519.4659
   4   2.0000     -19.055586      -518.5289
   5   2.0000     -10.184004      -277.1208
   6   2.0000     -10.183843      -277.1165
   7   2.0000     -10.160200      -276.4731
   8   2.0000     -10.142425      -275.9894
   9   2.0000     -10.139540      -275.9109
  10   2.0000     -10.129219      -275.6301
  11   2.0000     -10.128706      -275.6161
  12   2.0000     -10.127182      -275.5746
  13   2.0000     -10.123121      -275.4641
  14   2.0000     -10.122722      -275.4533
  15   2.0000     -10.120272      -275.3866
  16   2.0000     -10.116367      -275.2803
  17   2.0000     -10.113813      -275.2108
  18   2.0000     -10.113476      -275.2017
  19   2.0000     -10.112017      -275.1620
  20   2.0000     -10.109329      -275.0888
  21   2.0000     -10.108419      -275.0641
  22   2.0000     -10.106358      -275.0080
  23   2.0000     -10.102072      -274.8913
  24   2.0000     -10.098165      -274.7850
  25   2.0000     -10.096211      -274.7319
  26   2.0000      -6.487300      -176.5284
  27   2.0000      -6.483751      -176.4318
  28   2.0000      -4.636948      -126.1778
  29   2.0000      -4.636292      -126.1599
  30   2.0000      -4.633123      -126.0737
  31   2.0000      -4.633113      -126.0734
  32   2.0000      -4.633084      -126.0726
  33   2.0000      -4.629773      -125.9825
  34   2.0000      -2.857269       -77.7502
  35   2.0000      -1.523890       -41.4671
  36   2.0000      -1.521664       -41.4066
  37   2.0000      -1.512599       -41.1599
  38   2.0000      -1.062619       -28.9153
  39   2.0000      -1.061377       -28.8815
  40   2.0000      -1.026518       -27.9330
  41   2.0000      -0.806364       -21.9423
  42   2.0000      -0.795797       -21.6547
  43   2.0000      -0.777975       -21.1698
  44   2.0000      -0.767860       -20.8945
  45   2.0000      -0.765791       -20.8382
  46   2.0000      -0.761690       -20.7266
  47   2.0000      -0.691773       -18.8241
  48   2.0000      -0.676929       -18.4202
  49   2.0000      -0.673546       -18.3281
  50   2.0000      -0.670759       -18.2523
  51   2.0000      -0.670581       -18.2474
  52   2.0000      -0.661317       -17.9953
  53   2.0000      -0.639370       -17.3981
  54   2.0000      -0.633271       -17.2322
  55   2.0000      -0.581993       -15.8368
  56   2.0000      -0.571517       -15.5518
  57   2.0000      -0.568854       -15.4793
  58   2.0000      -0.568218       -15.4620
  59   2.0000      -0.538400       -14.6506
  60   2.0000      -0.512586       -13.9482
  61   2.0000      -0.509229       -13.8568
  62   2.0000      -0.503376       -13.6976
  63   2.0000      -0.491872       -13.3845
  64   2.0000      -0.472058       -12.8454
  65   2.0000      -0.461851       -12.5676
  66   2.0000      -0.458475       -12.4757
  67   2.0000      -0.452629       -12.3166
  68   2.0000      -0.450309       -12.2535
  69   2.0000      -0.437305       -11.8997
  70   2.0000      -0.434528       -11.8241
  71   2.0000      -0.430040       -11.7020
  72   2.0000      -0.421515       -11.4700
  73   2.0000      -0.420317       -11.4374
  74   2.0000      -0.417933       -11.3725
  75   2.0000      -0.416180       -11.3248
  76   2.0000      -0.408038       -11.1033
  77   2.0000      -0.403958       -10.9923
  78   2.0000      -0.402729       -10.9588
  79   2.0000      -0.400734       -10.9045
  80   2.0000      -0.396541       -10.7904
  81   2.0000      -0.396151       -10.7798
  82   2.0000      -0.393981       -10.7208
  83   2.0000      -0.391364       -10.6495
  84   2.0000      -0.391006       -10.6398
  85   2.0000      -0.387798       -10.5525
  86   2.0000      -0.385293       -10.4843
  87   2.0000      -0.382667       -10.4129
  88   2.0000      -0.381287       -10.3753
  89   2.0000      -0.378411       -10.2971
  90   2.0000      -0.376726       -10.2512
  91   2.0000      -0.371567       -10.1108
  92   2.0000      -0.370278       -10.0758
  93   2.0000      -0.369181       -10.0459
  94   2.0000      -0.366024        -9.9600
  95   2.0000      -0.355048        -9.6614
  96   2.0000      -0.352454        -9.5907
  97   2.0000      -0.351620        -9.5681
  98   2.0000      -0.346943        -9.4408
  99   2.0000      -0.341595        -9.2953
 100   2.0000      -0.340409        -9.2630
 101   2.0000      -0.339087        -9.2270
 102   2.0000      -0.334597        -9.1049
 103   2.0000      -0.330709        -8.9990
 104   2.0000      -0.329278        -8.9601
 105   2.0000      -0.327240        -8.9047
 106   2.0000      -0.325763        -8.8645
 107   2.0000      -0.325195        -8.8490
 108   2.0000      -0.322426        -8.7736
 109   2.0000      -0.293066        -7.9747
 110   2.0000      -0.287702        -7.8288
 111   2.0000      -0.286943        -7.8081
 112   2.0000      -0.284620        -7.7449
 113   2.0000      -0.275065        -7.4849
 114   2.0000      -0.240344        -6.5401
 115   2.0000      -0.187042        -5.0897
 116   2.0000      -0.178290        -4.8515
 117   2.0000      -0.164152        -4.4668
 118   0.0000      -0.070209        -1.9105
 119   0.0000      -0.038839        -1.0569
 120   0.0000      -0.008286        -0.2255
 121   0.0000      -0.004070        -0.1108
 122   0.0000       0.001864         0.0507

MULLIKEN ATOMIC CHARGES
-----------------------
   0 W :   -3.516970
   1 C :    1.128712
   2 O :   -0.550898
   3 C :    1.631708
   4 O :   -0.646766
   5 C :    1.112606
   6 O :   -0.561560
   7 P :    0.286035
   8 C :    0.378317
   9 H :    0.227439
  10 C :    0.576822
  11 H :    0.133976
  12 C :    0.563643
  13 H :    0.188368
  14 C :    0.848798
  15 P :   -0.143959
  16 H :    0.103765
  17 H :    0.253282
  18 C :    0.689993
  19 H :    0.220937
  20 C :   -0.517803
  21 H :    0.059127
  22 H :    0.100017
  23 H :    0.042763
  24 C :   -0.547779
  25 H :    0.059100
  26 H :    0.080594
  27 H :    0.101654
  28 C :   -0.606400
  29 H :    0.114937
  30 H :    0.066687
  31 H :    0.090944
  32 C :   -0.453079
  33 H :    0.059521
  34 H :    0.054692
  35 H :    0.090252
  36 C :   -0.613103
  37 H :    0.116389
  38 H :    0.068276
  39 H :    0.048817
  40 C :   -0.547138
  41 H :   -0.000714
  42 H :    0.075048
  43 H :    0.145209
  44 C :   -0.670348
  45 H :    0.118974
  46 H :    0.116409
  47 H :    0.067379
  48 C :   -0.421259
  49 H :    0.047645
  50 C :   -0.758971
  51 H :    0.087959
  52 H :    0.055163
  53 C :   -0.641137
  54 H :    0.097582
  55 H :    0.078169
  56 H :    0.186794
  57 C :    0.955654
  58 H :    0.069273
  59 H :    0.089850
  60 H :    0.130620
  61 C :   -0.544146
  62 H :    0.080114
  63 H :    0.085313
  64 H :    0.087443
  65 C :   -0.581689
  66 H :    0.103786
  67 H :    0.070110
  68 H :    0.077050
Sum of atomic charges:   -0.0000000

LOEWDIN ATOMIC CHARGES
----------------------
   0 W :    0.339158
   1 C :   -0.288840
   2 O :    0.052349
   3 C :   -0.387091
   4 O :    0.021529
   5 C :   -0.281849
   6 O :    0.050106
   7 P :    1.053210
   8 C :   -0.369188
   9 H :   -0.030304
  10 C :   -0.349426
  11 H :   -0.038168
  12 C :   -0.348643
  13 H :   -0.033667
  14 C :   -0.353263
  15 P :    1.048054
  16 H :   -0.007217
  17 H :   -0.026740
  18 C :   -0.351494
  19 H :   -0.015866
  20 C :    0.129215
  21 H :   -0.004731
  22 H :   -0.022507
  23 H :   -0.041353
  24 C :    0.132090
  25 H :   -0.028572
  26 H :   -0.005619
  27 H :   -0.029703
  28 C :    0.129895
  29 H :   -0.027200
  30 H :   -0.006310
  31 H :   -0.025495
  32 C :    0.128766
  33 H :   -0.004156
  34 H :   -0.049312
  35 H :   -0.023279
  36 C :    0.122126
  37 H :   -0.020768
  38 H :   -0.008322
  39 H :   -0.036324
  40 C :    0.122704
  41 H :   -0.038265
  42 H :   -0.007638
  43 H :   -0.021705
  44 C :    0.118786
  45 H :   -0.021435
  46 H :   -0.016959
  47 H :   -0.006709
  48 C :    0.129845
  49 H :   -0.024823
  50 C :    0.073644
  51 H :   -0.041656
  52 H :   -0.005743
  53 C :    0.123271
  54 H :   -0.078332
  55 H :    0.008353
  56 H :   -0.033921
  57 C :   -0.336079
  58 H :   -0.006136
  59 H :   -0.022465
  60 H :   -0.022993
  61 C :    0.119902
  62 H :   -0.039550
  63 H :   -0.005759
  64 H :   -0.025483
  65 C :    0.129131
  66 H :   -0.019765
  67 H :   -0.033061
  68 H :   -0.008256

  Mayer bond orders larger than 0.100000
B(  0-W ,  1-C ) :   1.5740 B(  0-W ,  2-O ) :   0.1336 B(  0-W ,  3-C ) :   1.4520
B(  0-W ,  4-O ) :   0.2778 B(  0-W ,  5-C ) :   1.1361 B(  0-W ,  6-O ) :   0.1958
B(  0-W , 10-C ) :   0.1508 B(  0-W , 15-P ) :   0.3008 B(  0-W , 18-C ) :   0.2914
B(  0-W , 19-H ) :  -0.1327 B(  0-W , 50-C ) :   0.4775 B(  1-C ,  2-O ) :   1.5098
B(  1-C ,  5-C ) :   0.3858 B(  1-C ,  7-P ) :   0.1341 B(  1-C , 15-P ) :   0.1044
B(  1-C , 54-H ) :  -0.1098 B(  3-C ,  4-O ) :   1.3540 B(  3-C ,  5-C ) :   0.1572
B(  3-C , 15-P ) :   0.1724 B(  5-C ,  6-O ) :   1.5722 B(  5-C ,  7-P ) :   0.1931
B(  5-C , 14-C ) :  -0.1085 B(  7-P ,  8-C ) :   0.8097 B(  7-P , 10-C ) :   0.6051
B(  7-P , 12-C ) :   0.7134 B(  7-P , 15-P ) :  -0.1530 B(  7-P , 20-C ) :   0.1066
B(  7-P , 24-C ) :   0.1257 B(  7-P , 28-C ) :   0.1400 B(  7-P , 36-C ) :   0.1172
B(  7-P , 40-C ) :   0.1403 B(  8-C ,  9-H ) :   0.7415 B(  8-C , 10-C ) :   0.4033
B(  8-C , 12-C ) :   0.4176 B(  8-C , 36-C ) :   0.7644 B(  8-C , 40-C ) :   0.8345
B( 10-C , 11-H ) :   0.7749 B( 10-C , 12-C ) :   0.3222 B( 10-C , 20-C ) :   0.7692
B( 10-C , 24-C ) :   0.6691 B( 10-C , 40-C ) :   0.1567 B( 12-C , 13-H ) :   0.7207
B( 12-C , 28-C ) :   0.7234 B( 12-C , 32-C ) :   0.8079 B( 12-C , 36-C ) :   0.1982
B( 14-C , 15-P ) :   0.3868 B( 14-C , 17-H ) :   0.7409 B( 14-C , 18-C ) :   0.2220
B( 14-C , 44-C ) :   0.6657 B( 14-C , 48-C ) :   0.7186 B( 14-C , 57-C ) :   0.2518
B( 14-C , 61-C ) :   0.1106 B( 15-P , 16-H ) :  -0.1259 B( 15-P , 18-C ) :   0.8680
B( 15-P , 19-H ) :   0.1085 B( 15-P , 44-C ) :   0.1452 B( 15-P , 48-C ) :   0.1693
B( 15-P , 50-C ) :   0.3354 B( 15-P , 53-C ) :   0.1138 B( 15-P , 57-C ) :   0.7991
B( 15-P , 61-C ) :   0.3416 B( 15-P , 62-H ) :   0.1092 B( 15-P , 65-C ) :   0.3589
B( 16-H , 57-C ) :   0.7942 B( 18-C , 19-H ) :   0.6979 B( 18-C , 57-C ) :   0.2625
B( 18-C , 61-C ) :   0.5120 B( 18-C , 65-C ) :   0.6648 B( 20-C , 21-H ) :   0.9137
B( 20-C , 22-H ) :   0.9870 B( 20-C , 23-H ) :   0.9809 B( 20-C , 24-C ) :   0.2207
B( 24-C , 25-H ) :   0.9771 B( 24-C , 26-H ) :   0.9908 B( 24-C , 27-H ) :   0.9348
B( 28-C , 29-H ) :   0.9113 B( 28-C , 30-H ) :   0.9852 B( 28-C , 31-H ) :   0.9766
B( 28-C , 32-C ) :   0.2171 B( 32-C , 33-H ) :   0.9127 B( 32-C , 34-H ) :   0.9805
B( 32-C , 35-H ) :   0.9647 B( 36-C , 37-H ) :   0.8854 B( 36-C , 38-H ) :   0.9447
B( 36-C , 39-H ) :   0.9997 B( 36-C , 40-C ) :   0.1468 B( 40-C , 41-H ) :   0.9949
B( 40-C , 42-H ) :   0.9338 B( 40-C , 43-H ) :   0.8762 B( 44-C , 45-H ) :   0.9721
B( 44-C , 46-H ) :   0.9913 B( 44-C , 47-H ) :   0.9748 B( 44-C , 48-C ) :   0.1857
B( 48-C , 49-H ) :   0.9587 B( 48-C , 51-H ) :   1.0264 B( 48-C , 52-H ) :   0.9400
B( 50-C , 53-C ) :   0.2421 B( 50-C , 54-H ) :   1.3362 B( 50-C , 55-H ) :   0.7209
B( 50-C , 56-H ) :   1.0024 B( 50-C , 57-C ) :   0.6321 B( 53-C , 57-C ) :   0.5407
B( 53-C , 58-H ) :   0.9652 B( 53-C , 59-H ) :   1.0082 B( 53-C , 60-H ) :   0.9967
B( 61-C , 62-H ) :   0.9958 B( 61-C , 63-H ) :   0.9343 B( 61-C , 64-H ) :   0.9942
B( 61-C , 65-C ) :   0.2008 B( 65-C , 66-H ) :   1.0236 B( 65-C , 67-H ) :   0.9571
B( 65-C , 68-H ) :   0.9380

Dispersion correction           -0.142619201
FINAL SINGLE POINT ENERGY     -1801.823116415383

DIPOLE MOMENT
-------------
                                X             Y             Z
Electronic contribution:     17.80988      16.09752     -20.04444
Nuclear contribution   :    -17.42159     -16.73751      21.91193
                        -----------------------------------------
Total Dipole Moment    :      0.38828      -0.63999       1.86749
                        -----------------------------------------
Magnitude (a.u.)       :      2.01193
Magnitude (Debye)      :      5.11393

Rotational constants in cm-1:     0.007992     0.003859     0.003786
Rotational constants in MHz :   239.602072   115.683770   113.510152

                             ****ORCA TERMINATED NORMALLY****
TOTAL RUN TIME: 0 days 1 hours 15 minutes 23 seconds 928 msec
