                         Program Version 4.2.0 -  RELEASE  -
|  1> #
|  2> # MOR01_accl TPSSh-D3BJ/Def2-TZVPPD
|  3> #
|  4> ! tpssh d3bj def2-tzvppd def2/jk grid4 nofinalgrid
|  5>
|  6> *xyz 0 1
|  7> C        1.306659   -1.017500   -0.000028
|  8> C        0.488515    0.240833   -0.000079
|  9> H        2.367301   -0.760167   -0.001300
| 10> H        1.052624   -1.613812   -0.881062
| 11> H        1.054555   -1.612076    0.882774
| 12> O        0.865971    1.367720    0.000018
| 13> Cl      -1.304312   -0.135041    0.000005
| 14> *
| 15>
| 16> %maxcore 5000
| 17>
| 18> %pal
| 19> nprocs = 24
| 20> end
| 21>
| 22>
| 23>                          ****END OF INPUT****

CARTESIAN COORDINATES (ANGSTROEM)
---------------------------------
  C      1.306659   -1.017500   -0.000028
  C      0.488515    0.240833   -0.000079
  H      2.367301   -0.760167   -0.001300
  H      1.052624   -1.613812   -0.881062
  H      1.054555   -1.612076    0.882774
  O      0.865971    1.367720    0.000018
  Cl    -1.304312   -0.135041    0.000005

 Total Charge           Charge          ....    0
 Multiplicity           Mult            ....    1
 Number of Electrons    NEL             ....   40
 Basis Dimension        Dim             ....  216

ORBITAL ENERGIES
----------------

  NO   OCC          E(Eh)            E(eV)
   0   2.0000    -101.379907     -2758.6875
   1   2.0000     -19.092625      -519.5367
   2   2.0000     -10.269867      -279.4573
   3   2.0000     -10.155258      -276.3386
   4   2.0000      -9.381302      -255.2782
   5   2.0000      -7.128236      -193.9692
   6   2.0000      -7.120933      -193.7704
   7   2.0000      -7.119587      -193.7338
   8   2.0000      -1.075653       -29.2700
   9   2.0000      -0.827685       -22.5225
  10   2.0000      -0.751495       -20.4492
  11   2.0000      -0.551293       -15.0014
  12   2.0000      -0.480237       -13.0679
  13   2.0000      -0.466214       -12.6863
  14   2.0000      -0.461138       -12.5482
  15   2.0000      -0.410064       -11.1584
  16   2.0000      -0.392135       -10.6705
  17   2.0000      -0.314622        -8.5613
  18   2.0000      -0.309785        -8.4297
  19   2.0000      -0.288263        -7.8440
  20   0.0000      -0.065538        -1.7834
  21   0.0000      -0.014208        -0.3866
  22   0.0000       0.002625         0.0714
  23   0.0000       0.032148         0.8748
  24   0.0000       0.040524         1.1027

MULLIKEN ATOMIC CHARGES
-----------------------
   0 C :   -0.072730
   1 C :    0.665061
   2 H :    0.011406
   3 H :    0.085255
   4 H :    0.085057
   5 O :   -0.398943
   6 Cl:   -0.375106
Sum of atomic charges:   -0.0000000

LOEWDIN ATOMIC CHARGES
----------------------
   0 C :    0.134522
   1 C :   -0.748887
   2 H :   -0.002737
   3 H :   -0.005708
   4 H :   -0.005617
   5 O :    0.072332
   6 Cl:    0.556096

  Mayer bond orders larger than 0.100000
B(  0-C ,  1-C ) :   1.0041 B(  0-C ,  2-H ) :   1.0146 B(  0-C ,  3-H ) :   0.9467
B(  0-C ,  4-H ) :   0.9465 B(  1-C ,  5-O ) :   1.8503 B(  1-C ,  6-Cl) :   0.6219
B(  5-O ,  6-Cl) :   0.1697

Dispersion correction           -0.005387980
FINAL SINGLE POINT ENERGY      -613.554702310991

DIPOLE MOMENT
-------------
                                X             Y             Z
Electronic contribution:     -5.48333       2.66070      -0.00033
Nuclear contribution   :      6.08095      -3.60915       0.00039
                        -----------------------------------------
Total Dipole Moment    :      0.59762      -0.94845       0.00006
                        -----------------------------------------
Magnitude (a.u.)       :      1.12103
Magnitude (Debye)      :      2.84943

Rotational constants in cm-1:     0.334975     0.160198     0.110601
Rotational constants in MHz : 10042.310181  4802.622935  3315.727154

                             ****ORCA TERMINATED NORMALLY****
TOTAL RUN TIME: 0 days 0 hours 0 minutes 6 seconds 665 msec
