                         Program Version 4.2.0 -  RELEASE  -
|  1> #
|  2> # MOR07_ed01 TPSSh-D3BJ/Def2-TZVPPD
|  3> #
|  4> ! tpssh d3bj def2-tzvppd def2/jk grid4 nofinalgrid
|  5>
|  6> *xyz 0 1
|  7> Cr      -0.000046    0.000041   -0.405569
|  8> O       -2.277907    2.043130   -0.317819
|  9> C       -1.422280    1.275470   -0.391359
| 10> C       -0.000325   -0.000192    1.429559
| 11> O       -0.000571   -0.000422    2.587655
| 12> C        1.422359   -1.275089   -0.391211
| 13> O        2.278285   -2.042429   -0.317709
| 14> C        1.275390    1.422211   -0.390822
| 15> O        2.043071    2.277781   -0.316760
| 16> C       -1.275267   -1.422351   -0.391135
| 17> O       -2.042647   -2.278220   -0.317434
| 18> *
| 19>
| 20> %maxcore 5000
| 21>
| 22> %pal
| 23> nprocs = 24
| 24> end
| 25>
| 26>
| 27>                          ****END OF INPUT****

CARTESIAN COORDINATES (ANGSTROEM)
---------------------------------
  Cr    -0.000046    0.000041   -0.405569
  O     -2.277907    2.043130   -0.317819
  C     -1.422280    1.275470   -0.391359
  C     -0.000325   -0.000192    1.429559
  O     -0.000571   -0.000422    2.587655
  C      1.422359   -1.275089   -0.391211
  O      2.278285   -2.042429   -0.317709
  C      1.275390    1.422211   -0.390822
  O      2.043071    2.277781   -0.316760
  C     -1.275267   -1.422351   -0.391135
  O     -2.042647   -2.278220   -0.317434

 Total Charge           Charge          ....    0
 Multiplicity           Mult            ....    1
 Number of Electrons    NEL             ....   94
 Basis Dimension        Dim             ....  452

ORBITAL ENERGIES
----------------

  NO   OCC          E(Eh)            E(eV)
   0   2.0000    -215.555817     -5865.5720
   1   2.0000     -24.615581      -669.8240
   2   2.0000     -20.883157      -568.2596
   3   2.0000     -20.883156      -568.2596
   4   2.0000     -20.882741      -568.2483
   5   2.0000     -19.147861      -521.0398
   6   2.0000     -19.147851      -521.0395
   7   2.0000     -19.147850      -521.0395
   8   2.0000     -19.147846      -521.0394
   9   2.0000     -19.123422      -520.3748
  10   2.0000     -10.239372      -278.6275
  11   2.0000     -10.239367      -278.6273
  12   2.0000     -10.239364      -278.6273
  13   2.0000     -10.239364      -278.6272
  14   2.0000     -10.224195      -278.2145
  15   2.0000      -2.857337       -77.7521
  16   2.0000      -1.809276       -49.2329
  17   2.0000      -1.808407       -49.2093
  18   2.0000      -1.808405       -49.2092
  19   2.0000      -1.123424       -30.5699
  20   2.0000      -1.122849       -30.5543
  21   2.0000      -1.122843       -30.5541
  22   2.0000      -1.122444       -30.5433
  23   2.0000      -1.099137       -29.9090
  24   2.0000      -0.596541       -16.2327
  25   2.0000      -0.559497       -15.2247
  26   2.0000      -0.559492       -15.2246
  27   2.0000      -0.556238       -15.1360
  28   2.0000      -0.543714       -14.7952
  29   2.0000      -0.481561       -13.1039
  30   2.0000      -0.467091       -12.7102
  31   2.0000      -0.462049       -12.5730
  32   2.0000      -0.462046       -12.5729
  33   2.0000      -0.458514       -12.4768
  34   2.0000      -0.455625       -12.3982
  35   2.0000      -0.455622       -12.3981
  36   2.0000      -0.448249       -12.1975
  37   2.0000      -0.441320       -12.0089
  38   2.0000      -0.436633       -11.8814
  39   2.0000      -0.431953       -11.7540
  40   2.0000      -0.431952       -11.7540
  41   2.0000      -0.413235       -11.2447
  42   2.0000      -0.402228       -10.9452
  43   2.0000      -0.402220       -10.9450
  44   2.0000      -0.247019        -6.7217
  45   2.0000      -0.239601        -6.5199
  46   2.0000      -0.239597        -6.5198
  47   0.0000      -0.143848        -3.9143
  48   0.0000      -0.064905        -1.7662
  49   0.0000      -0.064897        -1.7659
  50   0.0000      -0.054361        -1.4792
  51   0.0000      -0.029237        -0.7956

MULLIKEN ATOMIC CHARGES
-----------------------
   0 Cr:   -1.035212
   1 O :   -0.290884
   2 C :    0.501000
   3 C :    0.516578
   4 O :   -0.322230
   5 C :    0.501080
   6 O :   -0.290920
   7 C :    0.501137
   8 O :   -0.290878
   9 C :    0.501213
  10 O :   -0.290885
Sum of atomic charges:   -0.0000000

LOEWDIN ATOMIC CHARGES
----------------------
   0 Cr:   -0.205531
   1 O :    0.145486
   2 C :   -0.085823
   3 C :   -0.170864
   4 O :    0.137893
   5 C :   -0.085877
   6 O :    0.145491
   7 C :   -0.085881
   8 O :    0.145485
   9 C :   -0.085864
  10 O :    0.145484

  Mayer bond orders larger than 0.100000
B(  0-Cr,  1-O ) :   0.1094 B(  0-Cr,  2-C ) :   1.0357 B(  0-Cr,  3-C ) :   1.4375
B(  0-Cr,  4-O ) :   0.1900 B(  0-Cr,  5-C ) :   1.0357 B(  0-Cr,  6-O ) :   0.1095
B(  0-Cr,  7-C ) :   1.0355 B(  0-Cr,  8-O ) :   0.1094 B(  0-Cr,  9-C ) :   1.0354
B(  0-Cr, 10-O ) :   0.1094 B(  1-O ,  2-C ) :   2.0917 B(  3-C ,  4-O ) :   1.9141
B(  5-C ,  6-O ) :   2.0916 B(  7-C ,  8-O ) :   2.0916 B(  9-C , 10-O ) :   2.0917

Dispersion correction           -0.018472267
FINAL SINGLE POINT ENERGY     -1611.507055784192

DIPOLE MOMENT
-------------
                                X             Y             Z
Electronic contribution:     -0.00030       0.00030      -2.40888
Nuclear contribution   :      0.00017      -0.00015       1.50310
                        -----------------------------------------
Total Dipole Moment    :     -0.00013       0.00015      -0.90578
                        -----------------------------------------
Magnitude (a.u.)       :      0.90578
Magnitude (Debye)      :      2.30231

Rotational constants in cm-1:     0.031146     0.031144     0.021766
Rotational constants in MHz :   933.731625   933.679962   652.524637

                             ****ORCA TERMINATED NORMALLY****
TOTAL RUN TIME: 0 days 0 hours 1 minutes 8 seconds 25 msec
