                         Program Version 4.2.0 -  RELEASE  -
|  1> #
|  2> # MOR06_cod TPSSh-D3BJ/Def2-TZVPPD
|  3> #
|  4> ! tpssh d3bj def2-tzvppd def2/jk grid4 nofinalgrid
|  5>
|  6> *xyz 0 1
|  7> C        1.191389    1.227675   -0.516531
|  8> C        0.040474   -1.675611   -0.245785
|  9> C       -0.040358    1.675615   -0.245809
| 10> H        1.773340    1.813957   -1.228847
| 11> C       -1.191236   -1.227682   -0.516688
| 12> H        0.358706   -2.571437   -0.779467
| 13> H       -0.358419    2.571431   -0.779611
| 14> H       -1.772889   -1.813647   -1.229501
| 15> C       -1.080136    1.086431    0.676864
| 16> H       -1.767105    1.885380    0.980109
| 17> H       -0.630813    0.710792    1.597907
| 18> C        1.924335    0.021333    0.009175
| 19> H        2.698129    0.353800    0.719005
| 20> H        2.474959   -0.423127   -0.831863
| 21> C        1.079920   -1.086274    0.677130
| 22> H        0.630295   -0.710168    1.597840
| 23> H        1.766727   -1.885140    0.980948
| 24> C       -1.924342   -0.021538    0.009255
| 25> H       -2.697754   -0.354225    0.719400
| 26> H       -2.475456    0.422687   -0.831583
| 27> *
| 28>
| 29> %maxcore 5000
| 30>
| 31> %pal
| 32> nprocs = 24
| 33> end
| 34>
| 35>
| 36>                          ****END OF INPUT****

CARTESIAN COORDINATES (ANGSTROEM)
---------------------------------
  C      1.191389    1.227675   -0.516531
  C      0.040474   -1.675611   -0.245785
  C     -0.040358    1.675615   -0.245809
  H      1.773340    1.813957   -1.228847
  C     -1.191236   -1.227682   -0.516688
  H      0.358706   -2.571437   -0.779467
  H     -0.358419    2.571431   -0.779611
  H     -1.772889   -1.813647   -1.229501
  C     -1.080136    1.086431    0.676864
  H     -1.767105    1.885380    0.980109
  H     -0.630813    0.710792    1.597907
  C      1.924335    0.021333    0.009175
  H      2.698129    0.353800    0.719005
  H      2.474959   -0.423127   -0.831863
  C      1.079920   -1.086274    0.677130
  H      0.630295   -0.710168    1.597840
  H      1.766727   -1.885140    0.980948
  C     -1.924342   -0.021538    0.009255
  H     -2.697754   -0.354225    0.719400
  H     -2.475456    0.422687   -0.831583

 Total Charge           Charge          ....    0
 Multiplicity           Mult            ....    1
 Number of Electrons    NEL             ....   60
 Basis Dimension        Dim             ....  500

ORBITAL ENERGIES
----------------

  NO   OCC          E(Eh)            E(eV)
   0   2.0000     -10.115454      -275.2555
   1   2.0000     -10.115453      -275.2555
   2   2.0000     -10.111921      -275.1594
   3   2.0000     -10.111915      -275.1592
   4   2.0000     -10.105427      -274.9826
   5   2.0000     -10.105421      -274.9825
   6   2.0000     -10.103533      -274.9311
   7   2.0000     -10.103530      -274.9310
   8   2.0000      -0.804368       -21.8880
   9   2.0000      -0.754480       -20.5305
  10   2.0000      -0.748341       -20.3634
  11   2.0000      -0.667141       -18.1538
  12   2.0000      -0.651501       -17.7282
  13   2.0000      -0.576575       -15.6894
  14   2.0000      -0.520020       -14.1505
  15   2.0000      -0.500733       -13.6256
  16   2.0000      -0.461752       -12.5649
  17   2.0000      -0.433852       -11.8057
  18   2.0000      -0.422928       -11.5085
  19   2.0000      -0.417581       -11.3629
  20   2.0000      -0.399542       -10.8721
  21   2.0000      -0.384417       -10.4605
  22   2.0000      -0.354771        -9.6538
  23   2.0000      -0.354285        -9.6406
  24   2.0000      -0.343089        -9.3359
  25   2.0000      -0.317437        -8.6379
  26   2.0000      -0.303522        -8.2593
  27   2.0000      -0.294732        -8.0201
  28   2.0000      -0.231313        -6.2944
  29   2.0000      -0.228340        -6.2135
  30   0.0000      -0.004514        -0.1228
  31   0.0000       0.000742         0.0202
  32   0.0000       0.007037         0.1915
  33   0.0000       0.025665         0.6984
  34   0.0000       0.026550         0.7225

MULLIKEN ATOMIC CHARGES
-----------------------
   0 C :   -0.269024
   1 C :   -0.280332
   2 C :   -0.280529
   3 H :    0.064890
   4 C :   -0.269202
   5 H :    0.064693
   6 H :    0.064563
   7 H :    0.064890
   8 C :    0.180428
   9 H :   -0.055918
  10 H :    0.037132
  11 C :    0.220592
  12 H :    0.008412
  13 H :    0.029420
  14 C :    0.180460
  15 H :    0.037148
  16 H :   -0.055952
  17 C :    0.220466
  18 H :    0.008393
  19 H :    0.029470
Sum of atomic charges:    0.0000000

LOEWDIN ATOMIC CHARGES
----------------------
   0 C :    0.007657
   1 C :    0.012728
   2 C :    0.012753
   3 H :   -0.007360
   4 C :    0.007660
   5 H :   -0.006002
   6 H :   -0.006016
   7 H :   -0.007363
   8 C :   -0.021160
   9 H :    0.007994
  10 H :   -0.006527
  11 C :   -0.015227
  12 H :    0.014537
  13 H :    0.013342
  14 C :   -0.021144
  15 H :   -0.006521
  16 H :    0.007997
  17 C :   -0.015223
  18 H :    0.014545
  19 H :    0.013329

  Mayer bond orders larger than 0.100000
B(  0-C ,  2-C ) :   1.2883 B(  0-C ,  3-H ) :   1.0246 B(  0-C , 11-C ) :   1.1037
B(  1-C ,  4-C ) :   1.2885 B(  1-C ,  5-H ) :   1.0282 B(  1-C , 11-C ) :   0.2156
B(  1-C , 14-C ) :   0.9973 B(  1-C , 17-C ) :  -0.1974 B(  2-C ,  6-H ) :   1.0286
B(  2-C ,  8-C ) :   0.9968 B(  2-C , 11-C ) :  -0.1974 B(  2-C , 17-C ) :   0.2157
B(  4-C ,  7-H ) :   1.0245 B(  4-C , 17-C ) :   1.1041 B(  8-C ,  9-H ) :   1.0136
B(  8-C , 10-H ) :   0.9472 B(  8-C , 14-C ) :   0.2679 B(  8-C , 17-C ) :   0.8327
B( 11-C , 12-H ) :   0.9228 B( 11-C , 13-H ) :   0.9074 B( 11-C , 14-C ) :   0.8330
B( 14-C , 15-H ) :   0.9468 B( 14-C , 16-H ) :   1.0137 B( 17-C , 18-H ) :   0.9227
B( 17-C , 19-H ) :   0.9074

Dispersion correction           -0.023543221
FINAL SINGLE POINT ENERGY      -312.193322586565

DIPOLE MOMENT
-------------
                                X             Y             Z
Electronic contribution:      0.00031      -0.00032      -0.85468
Nuclear contribution   :     -0.00029       0.00032       0.95237
                        -----------------------------------------
Total Dipole Moment    :      0.00002       0.00000       0.09770
                        -----------------------------------------
Magnitude (a.u.)       :      0.09770
Magnitude (Debye)      :      0.24833

Rotational constants in cm-1:     0.087291     0.074989     0.047810
Rotational constants in MHz :  2616.931187  2248.128417  1433.302108

                             ****ORCA TERMINATED NORMALLY****
TOTAL RUN TIME: 0 days 0 hours 1 minutes 19 seconds 556 msec
