                         Program Version 4.2.0 -  RELEASE  -
|  1> #
|  2> # MOR08_ed05 TPSSh-D3BJ/Def2-TZVPPD
|  3> #
|  4> ! tpssh d3bj def2-tzvppd def2/jk grid4 nofinalgrid
|  5>
|  6> *xyz 0 1
|  7> Mn      -0.000015    0.000034   -0.156112
|  8> O       -2.966556    0.069032   -0.568565
|  9> C       -1.835048    0.042703   -0.376221
| 10> C        0.000106   -0.000266    1.691489
| 11> O        0.000196   -0.000501    2.842648
| 12> C        1.835004   -0.042558   -0.376374
| 13> O        2.966501   -0.068795   -0.568793
| 14> C        0.042608    1.834986   -0.376689
| 15> O        0.068875    2.966413   -0.569532
| 16> C       -0.042655   -1.834886   -0.377054
| 17> O       -0.068962   -2.966280   -0.570073
| 18> H       -0.000145    0.000318   -1.733571
| 19> *
| 20>
| 21> %maxcore 5000
| 22>
| 23> %pal
| 24> nprocs = 24
| 25> end
| 26>
| 27>
| 28>                          ****END OF INPUT****

CARTESIAN COORDINATES (ANGSTROEM)
---------------------------------
  Mn    -0.000015    0.000034   -0.156112
  O     -2.966556    0.069032   -0.568565
  C     -1.835048    0.042703   -0.376221
  C      0.000106   -0.000266    1.691489
  O      0.000196   -0.000501    2.842648
  C      1.835004   -0.042558   -0.376374
  O      2.966501   -0.068795   -0.568793
  C      0.042608    1.834986   -0.376689
  O      0.068875    2.966413   -0.569532
  C     -0.042655   -1.834886   -0.377054
  O     -0.068962   -2.966280   -0.570073
  H     -0.000145    0.000318   -1.733571

 Total Charge           Charge          ....    0
 Multiplicity           Mult            ....    1
 Number of Electrons    NEL             ....   96
 Basis Dimension        Dim             ....  469

ORBITAL ENERGIES
----------------

  NO   OCC          E(Eh)            E(eV)
   0   2.0000    -235.299006     -6402.8115
   1   2.0000     -27.226149      -740.8612
   2   2.0000     -23.279731      -633.4737
   3   2.0000     -23.279729      -633.4736
   4   2.0000     -23.274483      -633.3309
   5   2.0000     -19.153069      -521.1815
   6   2.0000     -19.153068      -521.1815
   7   2.0000     -19.153059      -521.1812
   8   2.0000     -19.153056      -521.1812
   9   2.0000     -19.144126      -520.9382
  10   2.0000     -10.251807      -278.9659
  11   2.0000     -10.251805      -278.9658
  12   2.0000     -10.251801      -278.9657
  13   2.0000     -10.251799      -278.9656
  14   2.0000     -10.241758      -278.6924
  15   2.0000      -3.151243       -85.7497
  16   2.0000      -2.017966       -54.9116
  17   2.0000      -2.017962       -54.9115
  18   2.0000      -2.006234       -54.5924
  19   2.0000      -1.131635       -30.7933
  20   2.0000      -1.130880       -30.7728
  21   2.0000      -1.130870       -30.7725
  22   2.0000      -1.130286       -30.7567
  23   2.0000      -1.120846       -30.4998
  24   2.0000      -0.611759       -16.6468
  25   2.0000      -0.566097       -15.4043
  26   2.0000      -0.566090       -15.4041
  27   2.0000      -0.561056       -15.2671
  28   2.0000      -0.559227       -15.2173
  29   2.0000      -0.496773       -13.5179
  30   2.0000      -0.478782       -13.0283
  31   2.0000      -0.468849       -12.7580
  32   2.0000      -0.468847       -12.7580
  33   2.0000      -0.467981       -12.7344
  34   2.0000      -0.465398       -12.6641
  35   2.0000      -0.465384       -12.6637
  36   2.0000      -0.455147       -12.3852
  37   2.0000      -0.448686       -12.2094
  38   2.0000      -0.446895       -12.1606
  39   2.0000      -0.446893       -12.1606
  40   2.0000      -0.446797       -12.1580
  41   2.0000      -0.436895       -11.8885
  42   2.0000      -0.415015       -11.2931
  43   2.0000      -0.415006       -11.2929
  44   2.0000      -0.312273        -8.4974
  45   2.0000      -0.278757        -7.5854
  46   2.0000      -0.264359        -7.1936
  47   2.0000      -0.264347        -7.1932
  48   0.0000      -0.065829        -1.7913
  49   0.0000      -0.065821        -1.7911
  50   0.0000      -0.057472        -1.5639
  51   0.0000      -0.054025        -1.4701
  52   0.0000      -0.050800        -1.3823

MULLIKEN ATOMIC CHARGES
-----------------------
   0 Mn:   -0.377064
   1 O :   -0.283590
   2 C :    0.401722
   3 C :    0.213881
   4 O :   -0.307327
   5 C :    0.401142
   6 O :   -0.283536
   7 C :    0.400346
   8 O :   -0.283570
   9 C :    0.400561
  10 O :   -0.283578
  11 H :    0.001013
Sum of atomic charges:    0.0000000

LOEWDIN ATOMIC CHARGES
----------------------
   0 Mn:   -0.428749
   1 O :    0.169383
   2 C :   -0.102835
   3 C :   -0.080481
   4 O :    0.151201
   5 C :   -0.102832
   6 O :    0.169384
   7 C :   -0.102862
   8 O :    0.169367
   9 C :   -0.102848
  10 O :    0.169370
  11 H :    0.091901

  Mayer bond orders larger than 0.100000
B(  0-Mn,  2-C ) :   1.0242 B(  0-Mn,  3-C ) :   1.0843 B(  0-Mn,  5-C ) :   1.0239
B(  0-Mn,  7-C ) :   1.0250 B(  0-Mn,  9-C ) :   1.0247 B(  0-Mn, 11-H ) :   0.7197
B(  1-O ,  2-C ) :   2.0480 B(  3-C ,  4-O ) :   1.9850 B(  5-C ,  6-O ) :   2.0480
B(  7-C ,  8-O ) :   2.0479 B(  9-C , 10-O ) :   2.0480

Dispersion correction           -0.017190025
FINAL SINGLE POINT ENERGY     -1718.653448261411

DIPOLE MOMENT
-------------
                                X             Y             Z
Electronic contribution:      0.00007      -0.00015       0.92027
Nuclear contribution   :     -0.00006       0.00014      -0.87929
                        -----------------------------------------
Total Dipole Moment    :      0.00001      -0.00001       0.04098
                        -----------------------------------------
Magnitude (a.u.)       :      0.04098
Magnitude (Debye)      :      0.10416

Rotational constants in cm-1:     0.030200     0.030198     0.023242
Rotational constants in MHz :   905.379927   905.310991   696.775514

                             ****ORCA TERMINATED NORMALLY****
TOTAL RUN TIME: 0 days 0 hours 1 minutes 9 seconds 878 msec
