                         Program Version 4.2.0 -  RELEASE  -
|  1> #
|  2> # MOR17_ed36 TPSSh-D3BJ/Def2-TZVPPD
|  3> #
|  4> ! tpssh d3bj def2-tzvppd def2/jk grid4 nofinalgrid
|  5>
|  6> *xyz 0 1
|  7> Mo      -0.000266    0.073285   -0.001759
|  8> C        1.725893   -0.773990   -1.226681
|  9> C        2.211696    0.414668   -0.610995
| 10> C        2.192326    0.250811    0.809261
| 11> C        1.685230   -1.035926    1.105715
| 12> C        1.413513   -1.680058   -0.153190
| 13> H        1.704188   -0.987838   -2.284881
| 14> H        2.536107    1.301869   -1.133102
| 15> H        2.493190    0.988099    1.537778
| 16> H        1.573828   -1.467340    2.089978
| 17> H        1.067801   -2.694661   -0.276651
| 18> C       -1.407221   -1.685804    0.112781
| 19> C       -1.709531   -0.814976    1.218351
| 20> C       -2.202710    0.272498   -0.775202
| 21> C       -1.695077   -1.002456   -1.122045
| 22> H       -1.669608   -1.061100    2.269076
| 23> H       -2.528690    1.258371    1.205067
| 24> C       -2.207491    0.390536    0.649493
| 25> H       -1.601566   -1.403288   -2.120864
| 26> H       -1.058155   -2.702954    0.200059
| 27> C        0.040880    2.214506    0.720862
| 28> H        0.978366    2.504794    1.184780
| 29> H       -0.817411    2.527371    1.307308
| 30> C       -0.044841    2.215313   -0.718681
| 31> H        0.814149    2.526211   -1.305102
| 32> H       -0.980875    2.509977   -1.182445
| 33> H       -2.516160    1.031799   -1.475134
| 34> *
| 35>
| 36> %maxcore 5000
| 37>
| 38> %pal
| 39> nprocs = 24
| 40> end
| 41>
| 42>
| 43>                          ****END OF INPUT****

CARTESIAN COORDINATES (ANGSTROEM)
---------------------------------
  Mo    -0.000266    0.073285   -0.001759
  C      1.725893   -0.773990   -1.226681
  C      2.211696    0.414668   -0.610995
  C      2.192326    0.250811    0.809261
  C      1.685230   -1.035926    1.105715
  C      1.413513   -1.680058   -0.153190
  H      1.704188   -0.987838   -2.284881
  H      2.536107    1.301869   -1.133102
  H      2.493190    0.988099    1.537778
  H      1.573828   -1.467340    2.089978
  H      1.067801   -2.694661   -0.276651
  C     -1.407221   -1.685804    0.112781
  C     -1.709531   -0.814976    1.218351
  C     -2.202710    0.272498   -0.775202
  C     -1.695077   -1.002456   -1.122045
  H     -1.669608   -1.061100    2.269076
  H     -2.528690    1.258371    1.205067
  C     -2.207491    0.390536    0.649493
  H     -1.601566   -1.403288   -2.120864
  H     -1.058155   -2.702954    0.200059
  C      0.040880    2.214506    0.720862
  H      0.978366    2.504794    1.184780
  H     -0.817411    2.527371    1.307308
  C     -0.044841    2.215313   -0.718681
  H      0.814149    2.526211   -1.305102
  H     -0.980875    2.509977   -1.182445
  H     -2.516160    1.031799   -1.475134

 Total Charge           Charge          ....    0
 Multiplicity           Mult            ....    1
 Number of Electrons    NEL             ....  100
 Basis Dimension        Dim             ....  738

ORBITAL ENERGIES
----------------

  NO   OCC          E(Eh)            E(eV)
   0   2.0000     -10.126728      -275.5623
   1   2.0000     -10.126643      -275.5600
   2   2.0000     -10.126498      -275.5560
   3   2.0000     -10.126339      -275.5517
   4   2.0000     -10.125685      -275.5339
   5   2.0000     -10.125006      -275.5154
   6   2.0000     -10.124841      -275.5109
   7   2.0000     -10.124746      -275.5084
   8   2.0000     -10.122314      -275.4422
   9   2.0000     -10.121842      -275.4293
  10   2.0000     -10.084830      -274.4222
  11   2.0000     -10.084389      -274.4102
  12   2.0000      -2.498171       -67.9787
  13   2.0000      -1.532602       -41.7042
  14   2.0000      -1.512452       -41.1559
  15   2.0000      -1.486567       -40.4515
  16   2.0000      -0.866128       -23.5686
  17   2.0000      -0.850980       -23.1563
  18   2.0000      -0.709884       -19.3169
  19   2.0000      -0.698069       -18.9954
  20   2.0000      -0.695134       -18.9156
  21   2.0000      -0.695036       -18.9129
  22   2.0000      -0.691291       -18.8110
  23   2.0000      -0.554369       -15.0852
  24   2.0000      -0.539908       -14.6916
  25   2.0000      -0.527835       -14.3631
  26   2.0000      -0.526166       -14.3177
  27   2.0000      -0.524789       -14.2802
  28   2.0000      -0.521254       -14.1840
  29   2.0000      -0.512142       -13.9361
  30   2.0000      -0.420238       -11.4353
  31   2.0000      -0.400486       -10.8978
  32   2.0000      -0.395944       -10.7742
  33   2.0000      -0.390808       -10.6344
  34   2.0000      -0.389042       -10.5864
  35   2.0000      -0.386009       -10.5038
  36   2.0000      -0.382040       -10.3958
  37   2.0000      -0.367968       -10.0129
  38   2.0000      -0.367305        -9.9949
  39   2.0000      -0.364497        -9.9185
  40   2.0000      -0.362003        -9.8506
  41   2.0000      -0.348528        -9.4839
  42   2.0000      -0.318489        -8.6665
  43   2.0000      -0.263876        -7.1804
  44   2.0000      -0.260810        -7.0970
  45   2.0000      -0.252188        -6.8624
  46   2.0000      -0.245751        -6.6872
  47   2.0000      -0.243615        -6.6291
  48   2.0000      -0.177363        -4.8263
  49   2.0000      -0.146467        -3.9856
  50   0.0000      -0.019630        -0.5342
  51   0.0000      -0.016479        -0.4484
  52   0.0000       0.008180         0.2226
  53   0.0000       0.008775         0.2388
  54   0.0000       0.010579         0.2879

MULLIKEN ATOMIC CHARGES
-----------------------
   0 Mo:   -1.700778
   1 C :    0.598359
   2 C :   -0.203206
   3 C :    0.023605
   4 C :    0.617145
   5 C :   -0.284225
   6 H :   -0.093239
   7 H :    0.016176
   8 H :   -0.008066
   9 H :   -0.028285
  10 H :    0.089023
  11 C :   -0.290303
  12 C :    0.570471
  13 C :   -0.006164
  14 C :    0.628009
  15 H :   -0.088686
  16 H :    0.020809
  17 C :   -0.168948
  18 H :   -0.033326
  19 H :    0.094277
  20 C :    0.103940
  21 H :    0.023392
  22 H :    0.012506
  23 C :    0.078180
  24 H :    0.004910
  25 H :    0.026566
  26 H :   -0.002141
Sum of atomic charges:    0.0000000

LOEWDIN ATOMIC CHARGES
----------------------
   0 Mo:    1.063906
   1 C :   -0.062597
   2 C :   -0.078050
   3 C :   -0.068683
   4 C :   -0.057451
   5 C :   -0.086332
   6 H :   -0.005074
   7 H :   -0.001124
   8 H :   -0.001149
   9 H :    0.000092
  10 H :   -0.007443
  11 C :   -0.086685
  12 C :   -0.062941
  13 C :   -0.069719
  14 C :   -0.057628
  15 H :   -0.004594
  16 H :   -0.001165
  17 C :   -0.075887
  18 H :   -0.000688
  19 H :   -0.007642
  20 C :   -0.027461
  21 H :   -0.067459
  22 H :   -0.067974
  23 C :   -0.028497
  24 H :   -0.068256
  25 H :   -0.068078
  26 H :   -0.001422

  Mayer bond orders larger than 0.100000
B(  0-Mo,  2-C ) :   0.9759 B(  0-Mo,  3-C ) :   0.5778 B(  0-Mo,  5-C ) :   1.0346
B(  0-Mo, 11-C ) :   1.0456 B(  0-Mo, 13-C ) :   0.6314 B(  0-Mo, 17-C ) :   0.9323
B(  0-Mo, 20-C ) :   0.7241 B(  0-Mo, 23-C ) :   0.7371 B(  1-C ,  2-C ) :   0.8095
B(  1-C ,  3-C ) :  -0.1468 B(  1-C ,  5-C ) :   0.7821 B(  1-C ,  6-H ) :   1.0579
B(  1-C , 11-C ) :  -0.1731 B(  1-C , 12-C ) :   0.2812 B(  1-C , 14-C ) :   0.2513
B(  1-C , 17-C ) :  -0.2737 B(  2-C ,  3-C ) :   0.8412 B(  2-C ,  7-H ) :   1.0460
B(  2-C , 11-C ) :   0.1464 B(  2-C , 12-C ) :  -0.2913 B(  2-C , 17-C ) :   0.1680
B(  2-C , 20-C ) :  -0.1166 B(  2-C , 23-C ) :   0.1446 B(  3-C ,  4-C ) :   0.8427
B(  3-C ,  8-H ) :   1.0576 B(  3-C , 12-C ) :   0.1305 B(  3-C , 13-C ) :   0.1050
B(  3-C , 20-C ) :   0.1514 B(  3-C , 23-C ) :  -0.1102 B(  4-C ,  5-C ) :   0.8267
B(  4-C ,  9-H ) :   0.9901 B(  4-C , 11-C ) :  -0.1415 B(  4-C , 12-C ) :   0.2248
B(  4-C , 13-C ) :  -0.1018 B(  4-C , 14-C ) :   0.1865 B(  4-C , 20-C ) :   0.1117
B(  5-C , 10-H ) :   1.0266 B(  5-C , 11-C ) :   0.4343 B(  5-C , 12-C ) :  -0.1645
B(  5-C , 14-C ) :  -0.1442 B(  5-C , 17-C ) :   0.1355 B( 11-C , 12-C ) :   0.7940
B( 11-C , 14-C ) :   0.8294 B( 11-C , 19-H ) :   1.0227 B( 12-C , 13-C ) :  -0.1574
B( 12-C , 15-H ) :   1.0559 B( 12-C , 17-C ) :   0.8273 B( 13-C , 14-C ) :   0.8357
B( 13-C , 17-C ) :   0.8420 B( 13-C , 20-C ) :  -0.1153 B( 13-C , 23-C ) :   0.1620
B( 13-C , 26-H ) :   1.0605 B( 14-C , 18-H ) :   0.9928 B( 14-C , 23-C ) :   0.1079
B( 16-H , 17-C ) :   1.0387 B( 17-C , 20-C ) :   0.1512 B( 17-C , 23-C ) :  -0.1126
B( 20-C , 21-H ) :   1.1119 B( 20-C , 22-H ) :   1.1027 B( 20-C , 23-C ) :   0.6128
B( 23-C , 24-H ) :   1.1097 B( 23-C , 25-H ) :   1.1060

Dispersion correction           -0.045545933
FINAL SINGLE POINT ENERGY      -534.192543089929

DIPOLE MOMENT
-------------
                                X             Y             Z
Electronic contribution:     -0.01296       0.82238      -0.10892
Nuclear contribution   :      0.01285      -1.32377       0.12031
                        -----------------------------------------
Total Dipole Moment    :     -0.00012      -0.50139       0.01139
                        -----------------------------------------
Magnitude (a.u.)       :      0.50152
Magnitude (Debye)      :      1.27475

Rotational constants in cm-1:     0.040116     0.028148     0.022583
Rotational constants in MHz :  1202.641010   843.851559   677.032187

                             ****ORCA TERMINATED NORMALLY****
TOTAL RUN TIME: 0 days 0 hours 6 minutes 29 seconds 849 msec
