                         Program Version 4.2.0 -  RELEASE  -
|  1> #
|  2> # MOR15_ed28 TPSSh-D3BJ/Def2-TZVPPD
|  3> #
|  4> ! tpssh d3bj def2-tzvppd def2/jk grid4 nofinalgrid
|  5>
|  6> *xyz 0 1
|  7> P        2.231289   -0.430274   -0.463190
|  8> P       -2.231227    0.430230   -0.463237
|  9> C        0.601806    0.475539   -0.398801
| 10> C       -0.601746   -0.475582   -0.398812
| 11> H        0.558406    1.125089   -1.282007
| 12> H        0.584231    1.127683    0.485308
| 13> H       -0.558397   -1.125071   -1.282069
| 14> H       -0.584133   -1.127767    0.485258
| 15> C       -2.297387    1.057835    1.283006
| 16> H       -3.294023    1.464895    1.482076
| 17> H       -1.575039    1.869076    1.414857
| 18> H       -2.084239    0.266904    2.013068
| 19> C       -3.365229   -1.028103   -0.282748
| 20> H       -3.089031   -1.663694    0.567640
| 21> H       -3.336618   -1.627593   -1.198231
| 22> H       -4.392612   -0.676718   -0.143291
| 23> C        3.365219    1.028123   -0.282780
| 24> H        4.392633    0.676869   -0.143242
| 25> H        3.088901    1.663766    0.567523
| 26> H        3.336575    1.627522   -1.198328
| 27> C        2.297280   -1.057763    1.283073
| 28> H        1.574883   -1.868971    1.414841
| 29> H        2.084009   -0.266765    2.013028
| 30> H        3.293857   -1.464863    1.482348
| 31> *
| 32>
| 33> %maxcore 5000
| 34>
| 35> %pal
| 36> nprocs = 24
| 37> end
| 38>
| 39>
| 40>                          ****END OF INPUT****

CARTESIAN COORDINATES (ANGSTROEM)
---------------------------------
  P      2.231289   -0.430274   -0.463190
  P     -2.231227    0.430230   -0.463237
  C      0.601806    0.475539   -0.398801
  C     -0.601746   -0.475582   -0.398812
  H      0.558406    1.125089   -1.282007
  H      0.584231    1.127683    0.485308
  H     -0.558397   -1.125071   -1.282069
  H     -0.584133   -1.127767    0.485258
  C     -2.297387    1.057835    1.283006
  H     -3.294023    1.464895    1.482076
  H     -1.575039    1.869076    1.414857
  H     -2.084239    0.266904    2.013068
  C     -3.365229   -1.028103   -0.282748
  H     -3.089031   -1.663694    0.567640
  H     -3.336618   -1.627593   -1.198231
  H     -4.392612   -0.676718   -0.143291
  C      3.365219    1.028123   -0.282780
  H      4.392633    0.676869   -0.143242
  H      3.088901    1.663766    0.567523
  H      3.336575    1.627522   -1.198328
  C      2.297280   -1.057763    1.283073
  H      1.574883   -1.868971    1.414841
  H      2.084009   -0.266765    2.013028
  H      3.293857   -1.464863    1.482348

 Total Charge           Charge          ....    0
 Multiplicity           Mult            ....    1
 Number of Electrons    NEL             ....   82
 Basis Dimension        Dim             ....  590

ORBITAL ENERGIES
----------------

  NO   OCC          E(Eh)            E(eV)
   0   2.0000     -76.907985     -2092.7727
   1   2.0000     -76.907983     -2092.7726
   2   2.0000     -10.117455      -275.3100
   3   2.0000     -10.117293      -275.3055
   4   2.0000     -10.110019      -275.1076
   5   2.0000     -10.110019      -275.1076
   6   2.0000     -10.109576      -275.0955
   7   2.0000     -10.109575      -275.0955
   8   2.0000      -6.463273      -175.8746
   9   2.0000      -6.463271      -175.8745
  10   2.0000      -4.612910      -125.5237
  11   2.0000      -4.612908      -125.5236
  12   2.0000      -4.612808      -125.5209
  13   2.0000      -4.612807      -125.5209
  14   2.0000      -4.607803      -125.3847
  15   2.0000      -4.607802      -125.3847
  16   2.0000      -0.767740       -20.8913
  17   2.0000      -0.729403       -19.8481
  18   2.0000      -0.700393       -19.0587
  19   2.0000      -0.671647       -18.2764
  20   2.0000      -0.671402       -18.2698
  21   2.0000      -0.610371       -16.6090
  22   2.0000      -0.512990       -13.9592
  23   2.0000      -0.505726       -13.7615
  24   2.0000      -0.448016       -12.1911
  25   2.0000      -0.417789       -11.3686
  26   2.0000      -0.413602       -11.2547
  27   2.0000      -0.411790       -11.2054
  28   2.0000      -0.407725       -11.0948
  29   2.0000      -0.386747       -10.5239
  30   2.0000      -0.385017       -10.4769
  31   2.0000      -0.384098       -10.4519
  32   2.0000      -0.383165       -10.4265
  33   2.0000      -0.360272        -9.8035
  34   2.0000      -0.351600        -9.5675
  35   2.0000      -0.341945        -9.3048
  36   2.0000      -0.310323        -8.4443
  37   2.0000      -0.307901        -8.3784
  38   2.0000      -0.278324        -7.5736
  39   2.0000      -0.217241        -5.9114
  40   2.0000      -0.214477        -5.8362
  41   0.0000       0.000964         0.0262
  42   0.0000       0.008528         0.2321
  43   0.0000       0.011392         0.3100
  44   0.0000       0.012091         0.3290
  45   0.0000       0.017749         0.4830

MULLIKEN ATOMIC CHARGES
-----------------------
   0 P :   -0.281332
   1 P :   -0.281297
   2 C :   -0.072055
   3 C :   -0.072020
   4 H :    0.084200
   5 H :    0.140649
   6 H :    0.084160
   7 H :    0.140660
   8 C :   -0.244353
   9 H :    0.089888
  10 H :    0.079424
  11 H :    0.140613
  12 C :   -0.236917
  13 H :    0.126210
  14 H :    0.085223
  15 H :    0.088414
  16 C :   -0.236891
  17 H :    0.088400
  18 H :    0.126211
  19 H :    0.085232
  20 C :   -0.244383
  21 H :    0.079438
  22 H :    0.140641
  23 H :    0.089884
Sum of atomic charges:   -0.0000000

LOEWDIN ATOMIC CHARGES
----------------------
   0 P :    0.915180
   1 P :    0.915188
   2 C :   -0.296058
   3 C :   -0.296055
   4 H :   -0.034917
   5 H :   -0.039250
   6 H :   -0.034918
   7 H :   -0.039252
   8 C :   -0.075662
   9 H :   -0.066324
  10 H :   -0.072450
  11 H :   -0.056568
  12 C :   -0.081102
  13 H :   -0.059878
  14 H :   -0.066284
  15 H :   -0.066692
  16 C :   -0.081097
  17 H :   -0.066691
  18 H :   -0.059886
  19 H :   -0.066279
  20 C :   -0.075670
  21 H :   -0.072453
  22 H :   -0.056565
  23 H :   -0.066317

  Mayer bond orders larger than 0.100000
B(  0-P ,  2-C ) :   0.6500 B(  0-P ,  3-C ) :   0.2406 B(  0-P , 16-C ) :   0.9087
B(  0-P , 20-C ) :   0.8668 B(  1-P ,  2-C ) :   0.2406 B(  1-P ,  3-C ) :   0.6501
B(  1-P ,  8-C ) :   0.8668 B(  1-P , 12-C ) :   0.9087 B(  2-C ,  3-C ) :   1.1249
B(  2-C ,  4-H ) :   0.9961 B(  2-C ,  5-H ) :   0.8971 B(  3-C ,  6-H ) :   0.9960
B(  3-C ,  7-H ) :   0.8971 B(  8-C ,  9-H ) :   0.9997 B(  8-C , 10-H ) :   1.0031
B(  8-C , 11-H ) :   0.9420 B( 12-C , 13-H ) :   0.9503 B( 12-C , 14-H ) :   0.9974
B( 12-C , 15-H ) :   0.9966 B( 16-C , 17-H ) :   0.9966 B( 16-C , 18-H ) :   0.9503
B( 16-C , 19-H ) :   0.9974 B( 20-C , 21-H ) :   1.0031 B( 20-C , 22-H ) :   0.9420
B( 20-C , 23-H ) :   0.9997

Dispersion correction           -0.029124470
FINAL SINGLE POINT ENERGY      -921.196440099978

DIPOLE MOMENT
-------------
                                X             Y             Z
Electronic contribution:      0.00066      -0.00041      -7.05415
Nuclear contribution   :     -0.00067       0.00041       7.75547
                        -----------------------------------------
Total Dipole Moment    :     -0.00001       0.00001       0.70132
                        -----------------------------------------
Magnitude (a.u.)       :      0.70132
Magnitude (Debye)      :      1.78261

Rotational constants in cm-1:     0.093884     0.018404     0.018105
Rotational constants in MHz :  2814.581921   551.745538   542.775536

                             ****ORCA TERMINATED NORMALLY****
TOTAL RUN TIME: 0 days 0 hours 1 minutes 39 seconds 82 msec
