                         Program Version 4.2.0 -  RELEASE  -
|  1> #
|  2> # MOR18_ed37 TPSSh-D3BJ/Def2-TZVPPD
|  3> #
|  4> ! tpssh d3bj def2-tzvppd def2/jk grid4 nofinalgrid
|  5>
|  6> *xyz 0 1
|  7> Mo      -0.098072   -0.000113   -0.000040
|  8> O       -1.958568   -1.162297    2.254949
|  9> C       -1.292076   -0.726548    1.409379
| 10> C       -1.290510    1.584735   -0.075353
| 11> O       -1.955816    2.535729   -0.120716
| 12> C       -1.292074   -0.856985   -1.334180
| 13> O       -1.958517   -1.371361   -2.134397
| 14> C        1.772262   -1.255233   -0.664863
| 15> C        1.773533   -1.210923    0.743855
| 16> C        1.772126    0.051067    1.419259
| 17> C        1.773764    1.248901    0.676519
| 18> C        1.772513    1.202801   -0.754108
| 19> C        1.773865   -0.039338   -1.420099
| 20> H        1.752441   -2.209415   -1.178166
| 21> H        1.754475   -2.130485    1.316775
| 22> H        1.752160    0.083668    2.502258
| 23> H        1.754801    2.204840    1.186440
| 24> H        1.752821    2.124408   -1.323840
| 25> H        1.755108   -0.075692   -2.502938
| 26> *
| 27>
| 28> %maxcore 5000
| 29>
| 30> %pal
| 31> nprocs = 24
| 32> end
| 33>
| 34>
| 35>                          ****END OF INPUT****

CARTESIAN COORDINATES (ANGSTROEM)
---------------------------------
  Mo    -0.098072   -0.000113   -0.000040
  O     -1.958568   -1.162297    2.254949
  C     -1.292076   -0.726548    1.409379
  C     -1.290510    1.584735   -0.075353
  O     -1.955816    2.535729   -0.120716
  C     -1.292074   -0.856985   -1.334180
  O     -1.958517   -1.371361   -2.134397
  C      1.772262   -1.255233   -0.664863
  C      1.773533   -1.210923    0.743855
  C      1.772126    0.051067    1.419259
  C      1.773764    1.248901    0.676519
  C      1.772513    1.202801   -0.754108
  C      1.773865   -0.039338   -1.420099
  H      1.752441   -2.209415   -1.178166
  H      1.754475   -2.130485    1.316775
  H      1.752160    0.083668    2.502258
  H      1.754801    2.204840    1.186440
  H      1.752821    2.124408   -1.323840
  H      1.755108   -0.075692   -2.502938

 Total Charge           Charge          ....    0
 Multiplicity           Mult            ....    1
 Number of Electrons    NEL             ....   98
 Basis Dimension        Dim             ....  611

ORBITAL ENERGIES
----------------

  NO   OCC          E(Eh)            E(eV)
   0   2.0000     -19.101382      -519.7750
   1   2.0000     -19.101377      -519.7749
   2   2.0000     -19.101369      -519.7747
   3   2.0000     -10.200641      -277.5736
   4   2.0000     -10.200638      -277.5735
   5   2.0000     -10.200633      -277.5733
   6   2.0000     -10.171015      -276.7674
   7   2.0000     -10.170864      -276.7633
   8   2.0000     -10.170859      -276.7631
   9   2.0000     -10.170309      -276.7482
  10   2.0000     -10.170306      -276.7481
  11   2.0000     -10.170149      -276.7438
  12   2.0000      -2.510859       -68.3239
  13   2.0000      -1.534832       -41.7649
  14   2.0000      -1.521340       -41.3978
  15   2.0000      -1.521331       -41.3975
  16   2.0000      -1.075383       -29.2627
  17   2.0000      -1.074762       -29.2458
  18   2.0000      -1.074760       -29.2457
  19   2.0000      -0.884855       -24.0781
  20   2.0000      -0.779029       -21.1984
  21   2.0000      -0.779028       -21.1984
  22   2.0000      -0.631766       -17.1912
  23   2.0000      -0.631765       -17.1912
  24   2.0000      -0.555394       -15.1130
  25   2.0000      -0.537005       -14.6126
  26   2.0000      -0.521046       -14.1784
  27   2.0000      -0.521038       -14.1782
  28   2.0000      -0.492028       -13.3888
  29   2.0000      -0.469593       -12.7783
  30   2.0000      -0.460040       -12.5183
  31   2.0000      -0.460037       -12.5182
  32   2.0000      -0.437402       -11.9023
  33   2.0000      -0.420666       -11.4469
  34   2.0000      -0.417050       -11.3485
  35   2.0000      -0.417038       -11.3482
  36   2.0000      -0.408375       -11.1124
  37   2.0000      -0.408369       -11.1123
  38   2.0000      -0.401275       -10.9193
  39   2.0000      -0.393654       -10.7119
  40   2.0000      -0.393641       -10.7115
  41   2.0000      -0.381062       -10.3692
  42   2.0000      -0.375393       -10.2150
  43   2.0000      -0.375388       -10.2148
  44   2.0000      -0.322125        -8.7655
  45   2.0000      -0.322114        -8.7652
  46   2.0000      -0.208394        -5.6707
  47   2.0000      -0.207302        -5.6410
  48   2.0000      -0.207288        -5.6406
  49   0.0000      -0.070674        -1.9231
  50   0.0000      -0.070667        -1.9229
  51   0.0000      -0.027530        -0.7491
  52   0.0000      -0.027523        -0.7489
  53   0.0000      -0.018042        -0.4910

MULLIKEN ATOMIC CHARGES
-----------------------
   0 Mo:   -1.300313
   1 O :   -0.319205
   2 C :    0.541340
   3 C :    0.541286
   4 O :   -0.319157
   5 C :    0.540676
   6 O :   -0.319314
   7 C :    0.124572
   8 C :    0.098355
   9 C :    0.126414
  10 C :    0.101039
  11 C :    0.123812
  12 C :    0.102238
  13 H :   -0.003444
  14 H :   -0.010912
  15 H :   -0.002753
  16 H :   -0.011358
  17 H :   -0.003040
  18 H :   -0.010238
Sum of atomic charges:    0.0000000

LOEWDIN ATOMIC CHARGES
----------------------
   0 Mo:    0.706691
   1 O :    0.071529
   2 C :   -0.228416
   3 C :   -0.228460
   4 O :    0.071532
   5 C :   -0.228435
   6 O :    0.071517
   7 C :   -0.051307
   8 C :   -0.050111
   9 C :   -0.051362
  10 C :   -0.050147
  11 C :   -0.051350
  12 C :   -0.050130
  13 H :    0.011558
  14 H :    0.011246
  15 H :    0.011567
  16 H :    0.011254
  17 H :    0.011577
  18 H :    0.011248

  Mayer bond orders larger than 0.100000
B(  0-Mo,  1-O ) :   0.1073 B(  0-Mo,  2-C ) :   1.4569 B(  0-Mo,  3-C ) :   1.4569
B(  0-Mo,  4-O ) :   0.1072 B(  0-Mo,  5-C ) :   1.4562 B(  0-Mo,  6-O ) :   0.1073
B(  0-Mo,  7-C ) :   0.4546 B(  0-Mo,  8-C ) :   0.4656 B(  0-Mo,  9-C ) :   0.4546
B(  0-Mo, 10-C ) :   0.4642 B(  0-Mo, 11-C ) :   0.4557 B(  0-Mo, 12-C ) :   0.4647
B(  1-O ,  2-C ) :   1.8879 B(  3-C ,  4-O ) :   1.8876 B(  5-C ,  6-O ) :   1.8880
B(  7-C ,  8-C ) :   1.0532 B(  7-C ,  9-C ) :  -0.1229 B(  7-C , 11-C ) :  -0.1233
B(  7-C , 12-C ) :   0.8658 B(  7-C , 13-H ) :   1.0949 B(  8-C ,  9-C ) :   0.8671
B(  8-C , 10-C ) :  -0.1242 B(  8-C , 12-C ) :  -0.1248 B(  8-C , 14-H ) :   1.1011
B(  9-C , 10-C ) :   1.0504 B(  9-C , 11-C ) :  -0.1240 B(  9-C , 15-H ) :   1.0954
B( 10-C , 11-C ) :   0.8709 B( 10-C , 12-C ) :  -0.1247 B( 10-C , 16-H ) :   1.1007
B( 11-C , 12-C ) :   1.0508 B( 11-C , 17-H ) :   1.0953 B( 12-C , 18-H ) :   1.1006

Dispersion correction           -0.032387356
FINAL SINGLE POINT ENERGY      -640.853561420679

DIPOLE MOMENT
-------------
                                X             Y             Z
Electronic contribution:    -11.07585      -0.00590      -0.00265
Nuclear contribution   :     13.46160       0.00506       0.00283
                        -----------------------------------------
Total Dipole Moment    :      2.38575      -0.00084       0.00018
                        -----------------------------------------
Magnitude (a.u.)       :      2.38575
Magnitude (Debye)      :      6.06410

Rotational constants in cm-1:     0.028916     0.021584     0.021580
Rotational constants in MHz :   866.875127   647.065472   646.965216

                             ****ORCA TERMINATED NORMALLY****
TOTAL RUN TIME: 0 days 0 hours 2 minutes 45 seconds 820 msec
