                         Program Version 4.2.0 -  RELEASE  -
|  1> #
|  2> # MOR12_ed18 TPSSh-D3BJ/Def2-TZVPPD
|  3> #
|  4> ! tpssh d3bj def2-tzvppd def2/jk grid4 nofinalgrid
|  5>
|  6> *xyz 0 1
|  7> Ir       0.000009    0.119441   -0.001134
|  8> P        2.313164   -0.026854    0.000864
|  9> C        3.266155    1.538041    0.001301
| 10> C        2.990776   -0.938546    1.437922
| 11> H        4.076753   -1.056364    1.355244
| 12> H        4.080827   -1.059585   -1.345638
| 13> H        2.508332   -1.918605    1.474823
| 14> H        2.511934   -1.920062   -1.470843
| 15> H        3.000883    2.123603    0.885753
| 16> H        2.748975   -0.395301    2.355327
| 17> C        2.995346   -0.940504   -1.432774
| 18> H        4.343510    1.342437    0.003886
| 19> H        2.757870   -0.397739   -2.351580
| 20> H        3.004825    2.121649   -0.885628
| 21> P       -2.313239   -0.026297    0.000821
| 22> C       -3.266059    1.538685   -0.001751
| 23> C       -2.995240   -0.942628   -1.431183
| 24> H       -2.509974   -1.915937    1.477317
| 25> H       -4.077346   -1.051885    1.357522
| 26> H       -2.748166   -0.391240    2.356043
| 27> C       -2.991181   -0.935299    1.439450
| 28> H       -2.510085   -1.921339   -1.468610
| 29> H       -4.080420   -1.063528   -1.342825
| 30> H       -4.343438    1.343207   -0.001601
| 31> H       -3.002541    2.121837   -0.888321
| 32> H       -2.759672   -0.400400   -2.350803
| 33> H       -3.002807    2.124611    0.883073
| 34> C        0.000649    1.940082   -0.001490
| 35> O        0.001240    3.110505   -0.001979
| 36> Cl      -0.000683   -2.266357   -0.002005
| 37> *
| 38>
| 39> %maxcore 5000
| 40>
| 41> %pal
| 42> nprocs = 24
| 43> end
| 44>
| 45>
| 46>                          ****END OF INPUT****

CARTESIAN COORDINATES (ANGSTROEM)
---------------------------------
  Ir     0.000009    0.119441   -0.001134
  P      2.313164   -0.026854    0.000864
  C      3.266155    1.538041    0.001301
  C      2.990776   -0.938546    1.437922
  H      4.076753   -1.056364    1.355244
  H      4.080827   -1.059585   -1.345638
  H      2.508332   -1.918605    1.474823
  H      2.511934   -1.920062   -1.470843
  H      3.000883    2.123603    0.885753
  H      2.748975   -0.395301    2.355327
  C      2.995346   -0.940504   -1.432774
  H      4.343510    1.342437    0.003886
  H      2.757870   -0.397739   -2.351580
  H      3.004825    2.121649   -0.885628
  P     -2.313239   -0.026297    0.000821
  C     -3.266059    1.538685   -0.001751
  C     -2.995240   -0.942628   -1.431183
  H     -2.509974   -1.915937    1.477317
  H     -4.077346   -1.051885    1.357522
  H     -2.748166   -0.391240    2.356043
  C     -2.991181   -0.935299    1.439450
  H     -2.510085   -1.921339   -1.468610
  H     -4.080420   -1.063528   -1.342825
  H     -4.343438    1.343207   -0.001601
  H     -3.002541    2.121837   -0.888321
  H     -2.759672   -0.400400   -2.350803
  H     -3.002807    2.124611    0.883073
  C      0.000649    1.940082   -0.001490
  O      0.001240    3.110505   -0.001979
  Cl    -0.000683   -2.266357   -0.002005

 Total Charge           Charge          ....    0
 Multiplicity           Mult            ....    1
 Number of Electrons    NEL             ....  132
 Basis Dimension        Dim             ....  811

ORBITAL ENERGIES
----------------

  NO   OCC          E(Eh)            E(eV)
   0   2.0000    -101.307246     -2756.7103
   1   2.0000     -76.949890     -2093.9130
   2   2.0000     -76.949881     -2093.9127
   3   2.0000     -19.085526      -519.3436
   4   2.0000     -10.194262      -277.4000
   5   2.0000     -10.122510      -275.4475
   6   2.0000     -10.122508      -275.4474
   7   2.0000     -10.116956      -275.2964
   8   2.0000     -10.116946      -275.2961
   9   2.0000     -10.116942      -275.2960
  10   2.0000     -10.116905      -275.2950
  11   2.0000      -9.308416      -253.2949
  12   2.0000      -7.052607      -191.9112
  13   2.0000      -7.049162      -191.8175
  14   2.0000      -7.048548      -191.8007
  15   2.0000      -6.503364      -176.9655
  16   2.0000      -6.503356      -176.9653
  17   2.0000      -4.652869      -126.6110
  18   2.0000      -4.652861      -126.6108
  19   2.0000      -4.652519      -126.6015
  20   2.0000      -4.652510      -126.6012
  21   2.0000      -4.649536      -126.5203
  22   2.0000      -4.649527      -126.5200
  23   2.0000      -3.621138       -98.5362
  24   2.0000      -1.989715       -54.1429
  25   2.0000      -1.977516       -53.8109
  26   2.0000      -1.947550       -52.9955
  27   2.0000      -1.058865       -28.8132
  28   2.0000      -0.761996       -20.7350
  29   2.0000      -0.759166       -20.6579
  30   2.0000      -0.723847       -19.6969
  31   2.0000      -0.687772       -18.7152
  32   2.0000      -0.687097       -18.6969
  33   2.0000      -0.683716       -18.6049
  34   2.0000      -0.683682       -18.6039
  35   2.0000      -0.547531       -14.8991
  36   2.0000      -0.529079       -14.3970
  37   2.0000      -0.528721       -14.3872
  38   2.0000      -0.442969       -12.0538
  39   2.0000      -0.438503       -11.9323
  40   2.0000      -0.431456       -11.7405
  41   2.0000      -0.427525       -11.6335
  42   2.0000      -0.424117       -11.5408
  43   2.0000      -0.424054       -11.5391
  44   2.0000      -0.421045       -11.4572
  45   2.0000      -0.411813       -11.2060
  46   2.0000      -0.400313       -10.8931
  47   2.0000      -0.400003       -10.8846
  48   2.0000      -0.397640       -10.8203
  49   2.0000      -0.397563       -10.8182
  50   2.0000      -0.389854       -10.6085
  51   2.0000      -0.382212       -10.4005
  52   2.0000      -0.381959       -10.3936
  53   2.0000      -0.345546        -9.4028
  54   2.0000      -0.336862        -9.1665
  55   2.0000      -0.334766        -9.1094
  56   2.0000      -0.333819        -9.0837
  57   2.0000      -0.331869        -9.0306
  58   2.0000      -0.293063        -7.9747
  59   2.0000      -0.288888        -7.8610
  60   2.0000      -0.274938        -7.4814
  61   2.0000      -0.251193        -6.8353
  62   2.0000      -0.221198        -6.0191
  63   2.0000      -0.216610        -5.8942
  64   2.0000      -0.210536        -5.7290
  65   2.0000      -0.189095        -5.1455
  66   0.0000      -0.041025        -1.1163
  67   0.0000      -0.007083        -0.1927
  68   0.0000      -0.002872        -0.0781
  69   0.0000      -0.000859        -0.0234
  70   0.0000       0.006222         0.1693

MULLIKEN ATOMIC CHARGES
-----------------------
   0 Ir:   -0.064045
   1 P :    0.351793
   2 C :   -0.324207
   3 C :   -0.262441
   4 H :    0.147243
   5 H :    0.147047
   6 H :    0.130788
   7 H :    0.130508
   8 H :    0.103820
   9 H :    0.057865
  10 C :   -0.262102
  11 H :    0.124798
  12 H :    0.057594
  13 H :    0.103814
  14 P :    0.351482
  15 C :   -0.324071
  16 C :   -0.262325
  17 H :    0.130315
  18 H :    0.147297
  19 H :    0.058096
  20 C :   -0.261916
  21 H :    0.130932
  22 H :    0.147024
  23 H :    0.124812
  24 H :    0.103875
  25 H :    0.057353
  26 H :    0.103686
  27 C :    0.247972
  28 O :   -0.528203
  29 Cl:   -0.668801
Sum of atomic charges:    0.0000000

LOEWDIN ATOMIC CHARGES
----------------------
   0 Ir:    0.370481
   1 P :    0.706006
   2 C :   -0.019537
   3 C :   -0.024021
   4 H :   -0.048775
   5 H :   -0.048765
   6 H :   -0.080617
   7 H :   -0.080706
   8 H :   -0.049950
   9 H :   -0.052338
  10 C :   -0.023987
  11 H :   -0.049206
  12 H :   -0.052317
  13 H :   -0.049885
  14 P :    0.705979
  15 C :   -0.019531
  16 C :   -0.024107
  17 H :   -0.080439
  18 H :   -0.048782
  19 H :   -0.052366
  20 C :   -0.023968
  21 H :   -0.081047
  22 H :   -0.048762
  23 H :   -0.049208
  24 H :   -0.049931
  25 H :   -0.052291
  26 H :   -0.049917
  27 C :   -0.515768
  28 O :    0.013314
  29 Cl:   -0.119560

  Mayer bond orders larger than 0.100000
B(  0-Ir,  1-P ) :   0.7975 B(  0-Ir, 14-P ) :   0.7977 B(  0-Ir, 27-C ) :   1.8899
B(  0-Ir, 28-O ) :   0.2148 B(  0-Ir, 29-Cl) :   0.3957 B(  1-P ,  2-C ) :   0.8968
B(  1-P ,  3-C ) :   0.9572 B(  1-P , 10-C ) :   0.9580 B(  1-P , 29-Cl) :   0.2175
B(  2-C ,  8-H ) :   0.9749 B(  2-C , 11-H ) :   0.9780 B(  2-C , 13-H ) :   0.9749
B(  3-C ,  4-H ) :   0.9559 B(  3-C ,  6-H ) :   0.9508 B(  3-C ,  9-H ) :   0.9974
B(  5-H , 10-C ) :   0.9560 B(  7-H , 10-C ) :   0.9508 B( 10-C , 12-H ) :   0.9974
B( 14-P , 15-C ) :   0.8969 B( 14-P , 16-C ) :   0.9579 B( 14-P , 20-C ) :   0.9573
B( 14-P , 29-Cl) :   0.2179 B( 15-C , 23-H ) :   0.9780 B( 15-C , 24-H ) :   0.9749
B( 15-C , 26-H ) :   0.9748 B( 16-C , 21-H ) :   0.9507 B( 16-C , 22-H ) :   0.9560
B( 16-C , 25-H ) :   0.9976 B( 17-H , 20-C ) :   0.9509 B( 18-H , 20-C ) :   0.9558
B( 19-H , 20-C ) :   0.9973 B( 27-C , 28-O ) :   1.7572

Dispersion correction           -0.051571393
FINAL SINGLE POINT ENERGY     -1600.591829650216

DIPOLE MOMENT
-------------
                                X             Y             Z
Electronic contribution:      0.00109      16.01182      -0.17784
Nuclear contribution   :     -0.00090     -15.69990       0.18198
                        -----------------------------------------
Total Dipole Moment    :      0.00019       0.31192       0.00414
                        -----------------------------------------
Magnitude (a.u.)       :      0.31195
Magnitude (Debye)      :      0.79292

Rotational constants in cm-1:     0.025294     0.012430     0.009680
Rotational constants in MHz :   758.298673   372.651784   290.199928

                             ****ORCA TERMINATED NORMALLY****
TOTAL RUN TIME: 0 days 0 hours 6 minutes 10 seconds 969 msec
