                         Program Version 4.2.0 -  RELEASE  -
|  1> #
|  2> # MOR11_ed11 TPSSh-D3BJ/Def2-TZVPPD
|  3> #
|  4> ! tpssh d3bj def2-tzvppd def2/jk grid4 nofinalgrid
|  5>
|  6> *xyz 0 1
|  7> C       -0.215143    2.474912    0.000943
|  8> C        0.405007    3.719049    0.001069
|  9> C        1.797844    3.776033    0.000678
| 10> C        2.518886    2.587780    0.000166
| 11> H       -1.296303    2.357179    0.001183
| 12> H       -0.198474    4.620568    0.001502
| 13> H        2.316345    4.729851    0.000789
| 14> H        3.602578    2.611029   -0.000041
| 15> N        0.477795    1.324684    0.000439
| 16> C        1.835277    1.367244    0.000057
| 17> C        2.509992    0.059887   -0.000357
| 18> N        1.694840   -1.036421    0.000876
| 19> C        2.257001   -2.260308    0.000535
| 20> C        4.472096   -1.347919   -0.002398
| 21> C        3.629983   -2.459360   -0.001050
| 22> H        1.562821   -3.092687    0.001515
| 23> H        4.023772   -3.470102   -0.001337
| 24> C        3.900751   -0.081941   -0.002040
| 25> H        4.532932    0.798314   -0.003223
| 26> H        5.551118   -1.464051   -0.003853
| 27> Pd      -0.336917   -0.654572    0.001071
| 28> C       -0.858975   -2.626404    0.002691
| 29> H       -0.413078   -3.060930    0.907026
| 30> H       -0.415091   -3.062278   -0.901950
| 31> H       -1.933716   -2.807010    0.004117
| 32> I       -2.840745   -0.024929   -0.001244
| 33> *
| 34>
| 35> %maxcore 5000
| 36>
| 37> %pal
| 38> nprocs = 24
| 39> end
| 40>
| 41>
| 42>                          ****END OF INPUT****

CARTESIAN COORDINATES (ANGSTROEM)
---------------------------------
  C     -0.215143    2.474912    0.000943
  C      0.405007    3.719049    0.001069
  C      1.797844    3.776033    0.000678
  C      2.518886    2.587780    0.000166
  H     -1.296303    2.357179    0.001183
  H     -0.198474    4.620568    0.001502
  H      2.316345    4.729851    0.000789
  H      3.602578    2.611029   -0.000041
  N      0.477795    1.324684    0.000439
  C      1.835277    1.367244    0.000057
  C      2.509992    0.059887   -0.000357
  N      1.694840   -1.036421    0.000876
  C      2.257001   -2.260308    0.000535
  C      4.472096   -1.347919   -0.002398
  C      3.629983   -2.459360   -0.001050
  H      1.562821   -3.092687    0.001515
  H      4.023772   -3.470102   -0.001337
  C      3.900751   -0.081941   -0.002040
  H      4.532932    0.798314   -0.003223
  H      5.551118   -1.464051   -0.003853
  Pd    -0.336917   -0.654572    0.001071
  C     -0.858975   -2.626404    0.002691
  H     -0.413078   -3.060930    0.907026
  H     -0.415091   -3.062278   -0.901950
  H     -1.933716   -2.807010    0.004117
  I     -2.840745   -0.024929   -0.001244

 Total Charge           Charge          ....    0
 Multiplicity           Mult            ....    1
 Number of Electrons    NEL             ....  134
 Basis Dimension        Dim             ....  783

ORBITAL ENERGIES
----------------

  NO   OCC          E(Eh)            E(eV)
   0   2.0000     -14.319647      -389.6574
   1   2.0000     -14.304026      -389.2323
   2   2.0000     -10.200329      -277.5651
   3   2.0000     -10.195695      -277.4390
   4   2.0000     -10.184122      -277.1241
   5   2.0000     -10.173836      -276.8442
   6   2.0000     -10.167966      -276.6844
   7   2.0000     -10.164813      -276.5986
   8   2.0000     -10.163606      -276.5658
   9   2.0000     -10.160824      -276.4901
  10   2.0000     -10.159334      -276.4495
  11   2.0000     -10.152624      -276.2669
  12   2.0000     -10.078113      -274.2394
  13   2.0000      -6.687735      -181.9825
  14   2.0000      -4.721214      -128.4708
  15   2.0000      -4.715591      -128.3178
  16   2.0000      -4.715127      -128.3051
  17   2.0000      -3.397674       -92.4554
  18   2.0000      -2.098855       -57.1127
  19   2.0000      -2.094900       -57.0051
  20   2.0000      -2.071077       -56.3569
  21   2.0000      -1.794723       -48.8369
  22   2.0000      -1.792873       -48.7865
  23   2.0000      -1.792626       -48.7798
  24   2.0000      -1.787778       -48.6479
  25   2.0000      -1.787771       -48.6477
  26   2.0000      -0.978396       -26.6235
  27   2.0000      -0.951901       -25.9026
  28   2.0000      -0.826500       -22.4902
  29   2.0000      -0.816254       -22.2114
  30   2.0000      -0.812046       -22.0969
  31   2.0000      -0.758002       -20.6263
  32   2.0000      -0.675255       -18.3746
  33   2.0000      -0.666120       -18.1261
  34   2.0000      -0.636057       -17.3080
  35   2.0000      -0.628812       -17.1108
  36   2.0000      -0.620780       -16.8923
  37   2.0000      -0.596178       -16.2228
  38   2.0000      -0.559902       -15.2357
  39   2.0000      -0.521586       -14.1931
  40   2.0000      -0.517914       -14.0932
  41   2.0000      -0.500367       -13.6157
  42   2.0000      -0.480853       -13.0847
  43   2.0000      -0.462157       -12.5759
  44   2.0000      -0.449165       -12.2224
  45   2.0000      -0.448874       -12.2145
  46   2.0000      -0.440626       -11.9901
  47   2.0000      -0.429476       -11.6866
  48   2.0000      -0.412774       -11.2322
  49   2.0000      -0.394823       -10.7437
  50   2.0000      -0.382065       -10.3965
  51   2.0000      -0.363104        -9.8806
  52   2.0000      -0.361460        -9.8358
  53   2.0000      -0.349790        -9.5183
  54   2.0000      -0.345039        -9.3890
  55   2.0000      -0.329920        -8.9776
  56   2.0000      -0.318220        -8.6592
  57   2.0000      -0.314342        -8.5537
  58   2.0000      -0.266380        -7.2486
  59   2.0000      -0.254078        -6.9138
  60   2.0000      -0.249896        -6.8000
  61   2.0000      -0.243303        -6.6206
  62   2.0000      -0.240842        -6.5536
  63   2.0000      -0.220686        -6.0052
  64   2.0000      -0.202088        -5.4991
  65   2.0000      -0.188698        -5.1347
  66   2.0000      -0.185476        -5.0471
  67   0.0000      -0.111457        -3.0329
  68   0.0000      -0.081852        -2.2273
  69   0.0000      -0.069172        -1.8823
  70   0.0000      -0.042110        -1.1459
  71   0.0000      -0.025488        -0.6936

MULLIKEN ATOMIC CHARGES
-----------------------
   0 C :    0.205586
   1 C :   -0.265032
   2 C :   -0.123605
   3 C :   -0.078093
   4 H :   -0.219197
   5 H :    0.061998
   6 H :    0.070199
   7 H :    0.038461
   8 N :    0.136216
   9 C :    0.711196
  10 C :   -0.026325
  11 N :    0.176200
  12 C :    0.010017
  13 C :   -0.149069
  14 C :   -0.265809
  15 H :    0.058068
  16 H :    0.054837
  17 C :   -0.075734
  18 H :    0.040429
  19 H :    0.067826
  20 Pd:   -0.198525
  21 C :   -0.260971
  22 H :    0.106894
  23 H :    0.107450
  24 H :    0.157610
  25 I :   -0.340627
Sum of atomic charges:    0.0000000

LOEWDIN ATOMIC CHARGES
----------------------
   0 C :   -0.053471
   1 C :    0.059669
   2 C :    0.047638
   3 C :    0.079368
   4 H :   -0.092442
   5 H :    0.006145
   6 H :    0.007914
   7 H :   -0.002052
   8 N :   -0.002193
   9 C :   -0.177604
  10 C :   -0.164686
  11 N :    0.009797
  12 C :   -0.014270
  13 C :    0.048820
  14 C :    0.059142
  15 H :   -0.014761
  16 H :    0.006643
  17 C :    0.080542
  18 H :   -0.000569
  19 H :    0.008399
  20 Pd:    0.446459
  21 C :   -0.067416
  22 H :   -0.110308
  23 H :   -0.110272
  24 H :   -0.167164
  25 I :    0.116673

  Mayer bond orders larger than 0.100000
B(  0-C ,  1-C ) :   1.1480 B(  0-C ,  4-H ) :   1.0535 B(  0-C ,  8-N ) :   1.3745
B(  0-C , 25-I ) :  -0.1631 B(  1-C ,  2-C ) :   1.1518 B(  1-C ,  5-H ) :   1.0728
B(  1-C , 20-Pd) :   0.1075 B(  2-C ,  3-C ) :   1.0899 B(  2-C ,  6-H ) :   1.0492
B(  2-C ,  8-N ) :   0.1098 B(  3-C ,  7-H ) :   1.1788 B(  3-C ,  8-N ) :  -0.1861
B(  3-C ,  9-C ) :   0.8266 B(  3-C , 10-C ) :  -0.4297 B(  3-C , 20-Pd) :   0.1524
B(  4-H ,  8-N ) :  -0.1201 B(  4-H , 25-I ) :   0.3344 B(  7-H ,  9-C ) :  -0.1048
B(  8-N ,  9-C ) :   1.0007 B(  8-N , 10-C ) :   0.6135 B(  8-N , 20-Pd) :   0.1588
B(  8-N , 25-I ) :  -0.1239 B(  9-C , 10-C ) :   1.1979 B(  9-C , 11-N ) :   0.1325
B(  9-C , 17-C ) :  -0.5198 B(  9-C , 20-Pd) :  -0.1683 B( 10-C , 11-N ) :   1.4372
B( 10-C , 13-C ) :  -0.1133 B( 10-C , 17-C ) :   0.9042 B( 10-C , 18-H ) :  -0.1017
B( 10-C , 20-Pd) :   0.1697 B( 11-N , 12-C ) :   1.5657 B( 11-N , 13-C ) :   0.1179
B( 11-N , 17-C ) :  -0.1997 B( 11-N , 20-Pd) :   0.2855 B( 12-C , 14-C ) :   1.1107
B( 12-C , 15-H ) :   1.0599 B( 13-C , 14-C ) :   1.1750 B( 13-C , 17-C ) :   1.1074
B( 13-C , 19-H ) :   1.0559 B( 14-C , 16-H ) :   1.0630 B( 17-C , 18-H ) :   1.1702
B( 17-C , 20-Pd) :   0.1405 B( 20-Pd, 21-C ) :   0.5958 B( 20-Pd, 22-H ) :   0.1087
B( 20-Pd, 23-H ) :   0.1085 B( 20-Pd, 25-I ) :   0.9912 B( 21-C , 22-H ) :   1.0157
B( 21-C , 23-H ) :   1.0156 B( 21-C , 24-H ) :   0.9766

Dispersion correction           -0.047172794
FINAL SINGLE POINT ENERGY      -961.156627498675

DIPOLE MOMENT
-------------
                                X             Y             Z
Electronic contribution:   -214.75220     -39.91877      -0.01937
Nuclear contribution   :    218.94043      41.00073       0.01934
                        -----------------------------------------
Total Dipole Moment    :      4.18822       1.08196      -0.00002
                        -----------------------------------------
Magnitude (a.u.)       :      4.32572
Magnitude (Debye)      :     10.99511

Rotational constants in cm-1:     0.017794     0.008244     0.005640
Rotational constants in MHz :   533.441148   247.152748   169.085365

                             ****ORCA TERMINATED NORMALLY****
TOTAL RUN TIME: 0 days 0 hours 19 minutes 0 seconds 14 msec
