                         Program Version 4.2.0 -  RELEASE  -
|  1> #
|  2> # MOR16_ed33 TPSSh-D3BJ/Def2-TZVPPD
|  3> #
|  4> ! tpssh d3bj def2-tzvppd def2/jk grid4 nofinalgrid
|  5>
|  6> *xyz 0 1
|  7> Ru      -0.022566   -0.070875   -0.379144
|  8> P        0.186586   -1.836138    1.061273
|  9> P       -0.107348    1.786969    0.983128
| 10> P       -2.337688   -0.031549   -0.574608
| 11> P        2.258415    0.217420   -0.654771
| 12> H       -1.011320    0.631023   -2.964588
| 13> C       -0.084126    0.244754   -2.536818
| 14> C        0.002235   -1.177677   -2.238071
| 15> H       -0.861138   -1.806799   -2.436001
| 16> C       -1.265405   -2.900768    1.510519
| 17> C        0.882199   -1.676365    2.777543
| 18> C        1.273276   -3.202818    0.434593
| 19> C       -0.218657    3.482246    0.220382
| 20> C       -1.474202    1.984957    2.229068
| 21> C        1.261931    2.159069    2.186793
| 22> C       -3.132442   -1.089929   -1.868209
| 23> C       -3.503325   -0.454941    0.806619
| 24> C       -3.065826    1.589188   -1.096490
| 25> C        3.115513   -0.738567   -1.988082
| 26> C        3.484163   -0.113039    0.695104
| 27> C        2.817918    1.905477   -1.167131
| 28> H        0.775994    0.734504   -2.997508
| 29> H        0.923698   -1.705224   -2.468332
| 30> H       -1.797994   -3.196368    0.601740
| 31> H       -1.951513   -2.343187    2.152343
| 32> H       -0.940552   -3.802999    2.042563
| 33> H        0.220858   -1.033459    3.367392
| 34> H        1.866404   -1.203417    2.738274
| 35> H        0.973380   -2.648584    3.278375
| 36> H        0.869924   -3.550933   -0.520488
| 37> H        1.326184   -4.042772    1.138076
| 38> H        2.284288   -2.829356    0.252702
| 39> H       -0.255493    4.275719    0.977504
| 40> H       -1.111307    3.540133   -0.406666
| 41> H        0.646533    3.642441   -0.427500
| 42> H       -1.340744    2.904812    2.810047
| 43> H       -1.464232    1.128616    2.910406
| 44> H       -2.450699    2.022913    1.741739
| 45> H        1.024646    3.051958    2.776564
| 46> H        2.206281    2.332826    1.666415
| 47> H        1.391528    1.309503    2.862930
| 48> H       -4.214574   -0.920776   -1.864995
| 49> H       -2.933677   -2.144929   -1.660324
| 50> H       -2.737237   -0.849967   -2.858203
| 51> H       -4.496496   -0.037297    0.606865
| 52> H       -3.139236   -0.075571    1.761748
| 53> H       -3.591401   -1.541056    0.877459
| 54> H       -4.128475    1.484093   -1.343350
| 55> H       -2.520683    1.955160   -1.969951
| 56> H       -2.964031    2.325987   -0.296631
| 57> H        4.171126   -0.449128   -2.023284
| 58> H        2.657332   -0.533147   -2.958558
| 59> H        3.043678   -1.811163   -1.790971
| 60> H        4.490887    0.184953    0.381316
| 61> H        3.492626   -1.181661    0.925550
| 62> H        3.218142    0.429172    1.603169
| 63> H        3.886252    1.913189   -1.411457
| 64> H        2.634640    2.627880   -0.369051
| 65> H        2.240286    2.211368   -2.043241
| 66> *
| 67>
| 68> %maxcore 5000
| 69>
| 70> %pal
| 71> nprocs = 24
| 72> end
| 73>
| 74>
| 75>                          ****END OF INPUT****

CARTESIAN COORDINATES (ANGSTROEM)
---------------------------------
  Ru    -0.022566   -0.070875   -0.379144
  P      0.186586   -1.836138    1.061273
  P     -0.107348    1.786969    0.983128
  P     -2.337688   -0.031549   -0.574608
  P      2.258415    0.217420   -0.654771
  H     -1.011320    0.631023   -2.964588
  C     -0.084126    0.244754   -2.536818
  C      0.002235   -1.177677   -2.238071
  H     -0.861138   -1.806799   -2.436001
  C     -1.265405   -2.900768    1.510519
  C      0.882199   -1.676365    2.777543
  C      1.273276   -3.202818    0.434593
  C     -0.218657    3.482246    0.220382
  C     -1.474202    1.984957    2.229068
  C      1.261931    2.159069    2.186793
  C     -3.132442   -1.089929   -1.868209
  C     -3.503325   -0.454941    0.806619
  C     -3.065826    1.589188   -1.096490
  C      3.115513   -0.738567   -1.988082
  C      3.484163   -0.113039    0.695104
  C      2.817918    1.905477   -1.167131
  H      0.775994    0.734504   -2.997508
  H      0.923698   -1.705224   -2.468332
  H     -1.797994   -3.196368    0.601740
  H     -1.951513   -2.343187    2.152343
  H     -0.940552   -3.802999    2.042563
  H      0.220858   -1.033459    3.367392
  H      1.866404   -1.203417    2.738274
  H      0.973380   -2.648584    3.278375
  H      0.869924   -3.550933   -0.520488
  H      1.326184   -4.042772    1.138076
  H      2.284288   -2.829356    0.252702
  H     -0.255493    4.275719    0.977504
  H     -1.111307    3.540133   -0.406666
  H      0.646533    3.642441   -0.427500
  H     -1.340744    2.904812    2.810047
  H     -1.464232    1.128616    2.910406
  H     -2.450699    2.022913    1.741739
  H      1.024646    3.051958    2.776564
  H      2.206281    2.332826    1.666415
  H      1.391528    1.309503    2.862930
  H     -4.214574   -0.920776   -1.864995
  H     -2.933677   -2.144929   -1.660324
  H     -2.737237   -0.849967   -2.858203
  H     -4.496496   -0.037297    0.606865
  H     -3.139236   -0.075571    1.761748
  H     -3.591401   -1.541056    0.877459
  H     -4.128475    1.484093   -1.343350
  H     -2.520683    1.955160   -1.969951
  H     -2.964031    2.325987   -0.296631
  H      4.171126   -0.449128   -2.023284
  H      2.657332   -0.533147   -2.958558
  H      3.043678   -1.811163   -1.790971
  H      4.490887    0.184953    0.381316
  H      3.492626   -1.181661    0.925550
  H      3.218142    0.429172    1.603169
  H      3.886252    1.913189   -1.411457
  H      2.634640    2.627880   -0.369051
  H      2.240286    2.211368   -2.043241

 Total Charge           Charge          ....    0
 Multiplicity           Mult            ....    1
 Number of Electrons    NEL             ....  200
 Basis Dimension        Dim             .... 1446

ORBITAL ENERGIES
----------------

  NO   OCC          E(Eh)            E(eV)
   0   2.0000     -76.929248     -2093.3512
   1   2.0000     -76.927871     -2093.3138
   2   2.0000     -76.922393     -2093.1647
   3   2.0000     -76.919213     -2093.0782
   4   2.0000     -10.106454      -275.0106
   5   2.0000     -10.104227      -274.9500
   6   2.0000     -10.103237      -274.9230
   7   2.0000     -10.102225      -274.8955
   8   2.0000     -10.102016      -274.8898
   9   2.0000     -10.101819      -274.8845
  10   2.0000     -10.101648      -274.8798
  11   2.0000     -10.101176      -274.8670
  12   2.0000     -10.098431      -274.7923
  13   2.0000     -10.098260      -274.7876
  14   2.0000     -10.095483      -274.7121
  15   2.0000     -10.094929      -274.6970
  16   2.0000     -10.067762      -273.9577
  17   2.0000     -10.060989      -273.7734
  18   2.0000      -6.481119      -176.3602
  19   2.0000      -6.479844      -176.3255
  20   2.0000      -6.473157      -176.1436
  21   2.0000      -6.470192      -176.0629
  22   2.0000      -4.630906      -126.0134
  23   2.0000      -4.630690      -126.0075
  24   2.0000      -4.629614      -125.9782
  25   2.0000      -4.629424      -125.9730
  26   2.0000      -4.626821      -125.9022
  27   2.0000      -4.625516      -125.8667
  28   2.0000      -4.623140      -125.8020
  29   2.0000      -4.622691      -125.7898
  30   2.0000      -4.620036      -125.7176
  31   2.0000      -4.619851      -125.7125
  32   2.0000      -4.618926      -125.6874
  33   2.0000      -4.615944      -125.6062
  34   2.0000      -2.909146       -79.1619
  35   2.0000      -1.770147       -48.1682
  36   2.0000      -1.763650       -47.9914
  37   2.0000      -1.757127       -47.8139
  38   2.0000      -0.747520       -20.3411
  39   2.0000      -0.742508       -20.2047
  40   2.0000      -0.734007       -19.9733
  41   2.0000      -0.732305       -19.9270
  42   2.0000      -0.687323       -18.7030
  43   2.0000      -0.673509       -18.3271
  44   2.0000      -0.671641       -18.2763
  45   2.0000      -0.670609       -18.2482
  46   2.0000      -0.664199       -18.0738
  47   2.0000      -0.662944       -18.0396
  48   2.0000      -0.662300       -18.0221
  49   2.0000      -0.660814       -17.9817
  50   2.0000      -0.659689       -17.9510
  51   2.0000      -0.529144       -14.3987
  52   2.0000      -0.526832       -14.3358
  53   2.0000      -0.514581       -14.0025
  54   2.0000      -0.508877       -13.8472
  55   2.0000      -0.507615       -13.8129
  56   2.0000      -0.440366       -11.9830
  57   2.0000      -0.438965       -11.9448
  58   2.0000      -0.430280       -11.7085
  59   2.0000      -0.425730       -11.5847
  60   2.0000      -0.419236       -11.4080
  61   2.0000      -0.416156       -11.3242
  62   2.0000      -0.413733       -11.2583
  63   2.0000      -0.409611       -11.1461
  64   2.0000      -0.405599       -11.0369
  65   2.0000      -0.401816       -10.9340
  66   2.0000      -0.398327       -10.8390
  67   2.0000      -0.395372       -10.7586
  68   2.0000      -0.393224       -10.7002
  69   2.0000      -0.383306       -10.4303
  70   2.0000      -0.379995       -10.3402
  71   2.0000      -0.378570       -10.3014
  72   2.0000      -0.374614       -10.1938
  73   2.0000      -0.372644       -10.1402
  74   2.0000      -0.371302       -10.1036
  75   2.0000      -0.369433       -10.0528
  76   2.0000      -0.367315        -9.9952
  77   2.0000      -0.365408        -9.9433
  78   2.0000      -0.363669        -9.8959
  79   2.0000      -0.362630        -9.8677
  80   2.0000      -0.360176        -9.8009
  81   2.0000      -0.357668        -9.7326
  82   2.0000      -0.321827        -8.7574
  83   2.0000      -0.319251        -8.6873
  84   2.0000      -0.314187        -8.5495
  85   2.0000      -0.312061        -8.4916
  86   2.0000      -0.308855        -8.4044
  87   2.0000      -0.305053        -8.3009
  88   2.0000      -0.301138        -8.1944
  89   2.0000      -0.299175        -8.1410
  90   2.0000      -0.296949        -8.0804
  91   2.0000      -0.294646        -8.0177
  92   2.0000      -0.281900        -7.6709
  93   2.0000      -0.272796        -7.4231
  94   2.0000      -0.234699        -6.3865
  95   2.0000      -0.222375        -6.0511
  96   2.0000      -0.180757        -4.9187
  97   2.0000      -0.177995        -4.8435
  98   2.0000      -0.162512        -4.4222
  99   2.0000      -0.139487        -3.7956
 100   0.0000      -0.006744        -0.1835
 101   0.0000       0.005601         0.1524
 102   0.0000       0.006233         0.1696
 103   0.0000       0.008351         0.2272
 104   0.0000       0.019172         0.5217

MULLIKEN ATOMIC CHARGES
-----------------------
   0 Ru:   -1.323565
   1 P :    1.403461
   2 P :    1.004590
   3 P :    0.997578
   4 P :    0.719778
   5 H :    0.045445
   6 C :   -0.560300
   7 C :   -0.044378
   8 H :    0.050839
   9 C :   -0.713386
  10 C :   -0.657694
  11 C :   -0.692941
  12 C :   -0.725889
  13 C :   -0.600501
  14 C :   -0.606312
  15 C :   -0.681579
  16 C :   -0.578462
  17 C :   -0.692272
  18 C :   -0.694208
  19 C :   -0.572105
  20 C :   -0.613849
  21 H :    0.060294
  22 H :    0.119358
  23 H :    0.116401
  24 H :    0.145253
  25 H :    0.184653
  26 H :    0.119084
  27 H :    0.127786
  28 H :    0.168287
  29 H :    0.129789
  30 H :    0.174441
  31 H :    0.106566
  32 H :    0.173008
  33 H :    0.092157
  34 H :    0.108411
  35 H :    0.182802
  36 H :    0.142370
  37 H :    0.158180
  38 H :    0.186289
  39 H :    0.152381
  40 H :    0.174337
  41 H :    0.163091
  42 H :    0.120833
  43 H :    0.178414
  44 H :    0.164976
  45 H :    0.095191
  46 H :    0.182593
  47 H :    0.164707
  48 H :    0.127626
  49 H :    0.143593
  50 H :    0.183450
  51 H :    0.185730
  52 H :    0.136556
  53 H :    0.173619
  54 H :    0.140170
  55 H :    0.133831
  56 H :    0.167127
  57 H :    0.125469
  58 H :    0.126925
Sum of atomic charges:    0.0000000

LOEWDIN ATOMIC CHARGES
----------------------
   0 Ru:    0.134998
   1 P :    0.776163
   2 P :    0.762574
   3 P :    0.823574
   4 P :    0.818148
   5 H :   -0.096434
   6 C :   -0.141479
   7 C :   -0.153486
   8 H :   -0.097951
   9 C :   -0.036428
  10 C :   -0.028871
  11 C :   -0.025709
  12 C :   -0.009532
  13 C :   -0.036326
  14 C :   -0.031655
  15 C :   -0.020841
  16 C :   -0.015016
  17 C :   -0.019144
  18 C :   -0.014695
  19 C :   -0.012790
  20 C :   -0.014259
  21 H :   -0.095522
  22 H :   -0.099661
  23 H :   -0.062371
  24 H :   -0.072589
  25 H :   -0.056394
  26 H :   -0.066675
  27 H :   -0.083476
  28 H :   -0.055764
  29 H :   -0.056234
  30 H :   -0.056766
  31 H :   -0.089177
  32 H :   -0.054776
  33 H :   -0.076711
  34 H :   -0.075293
  35 H :   -0.055358
  36 H :   -0.062622
  37 H :   -0.087465
  38 H :   -0.054702
  39 H :   -0.087295
  40 H :   -0.068190
  41 H :   -0.050379
  42 H :   -0.056981
  43 H :   -0.058590
  44 H :   -0.048984
  45 H :   -0.081317
  46 H :   -0.072749
  47 H :   -0.053055
  48 H :   -0.061037
  49 H :   -0.085882
  50 H :   -0.051433
  51 H :   -0.057519
  52 H :   -0.060690
  53 H :   -0.049340
  54 H :   -0.073042
  55 H :   -0.084842
  56 H :   -0.052140
  57 H :   -0.087310
  58 H :   -0.058511

  Mayer bond orders larger than 0.100000
B(  0-Ru,  1-P ) :   0.6400 B(  0-Ru,  2-P ) :   0.7009 B(  0-Ru,  3-P ) :   0.5572
B(  0-Ru,  4-P ) :   0.5581 B(  0-Ru,  6-C ) :   0.9262 B(  0-Ru,  7-C ) :   0.8149
B(  0-Ru, 10-C ) :   0.1117 B(  0-Ru, 11-C ) :   0.1993 B(  0-Ru, 12-C ) :   0.1320
B(  0-Ru, 15-C ) :   0.1189 B(  0-Ru, 17-C ) :   0.1062 B(  0-Ru, 20-C ) :   0.1450
B(  1-P ,  2-P ) :   0.3577 B(  1-P ,  4-P ) :   0.2220 B(  1-P ,  9-C ) :   0.6315
B(  1-P , 10-C ) :   0.6957 B(  1-P , 11-C ) :   0.8006 B(  2-P ,  3-P ) :   0.1872
B(  2-P ,  4-P ) :   0.1918 B(  2-P ,  7-C ) :   0.1039 B(  2-P , 12-C ) :   0.8246
B(  2-P , 13-C ) :   0.4500 B(  2-P , 14-C ) :   0.4539 B(  3-P ,  4-P ) :   0.2288
B(  3-P ,  6-C ) :   0.2345 B(  3-P ,  7-C ) :  -0.2513 B(  3-P , 15-C ) :   0.5927
B(  3-P , 16-C ) :   0.6728 B(  3-P , 17-C ) :   0.6958 B(  4-P ,  6-C ) :   0.2030
B(  4-P ,  7-C ) :  -0.1930 B(  4-P , 14-C ) :   0.1108 B(  4-P , 18-C ) :   0.6601
B(  4-P , 19-C ) :   0.7445 B(  4-P , 20-C ) :   0.5945 B(  5-H ,  6-C ) :   1.2651
B(  5-H ,  7-C ) :  -0.1475 B(  6-C ,  7-C ) :   0.6110 B(  6-C ,  8-H ) :  -0.1500
B(  6-C , 21-H ) :   1.1892 B(  6-C , 22-H ) :  -0.1284 B(  7-C ,  8-H ) :   1.1848
B(  7-C , 21-H ) :  -0.1208 B(  7-C , 22-H ) :   1.1700 B(  9-C , 10-C ) :   0.1578
B(  9-C , 11-C ) :   0.1743 B(  9-C , 23-H ) :   1.0292 B(  9-C , 24-H ) :   0.9653
B(  9-C , 25-H ) :   0.9260 B( 10-C , 11-C ) :   0.1224 B( 10-C , 26-H ) :   0.9930
B( 10-C , 27-H ) :   1.0163 B( 10-C , 28-H ) :   0.9502 B( 11-C , 29-H ) :   0.9831
B( 11-C , 30-H ) :   0.9446 B( 11-C , 31-H ) :   0.9950 B( 12-C , 13-C ) :   0.1284
B( 12-C , 14-C ) :   0.1363 B( 12-C , 32-H ) :   0.9401 B( 12-C , 33-H ) :   1.0172
B( 12-C , 34-H ) :   1.0268 B( 13-C , 14-C ) :   0.2139 B( 13-C , 35-H ) :   0.9435
B( 13-C , 36-H ) :   1.0149 B( 13-C , 37-H ) :   0.9694 B( 14-C , 38-H ) :   0.9331
B( 14-C , 39-H ) :   0.9546 B( 14-C , 40-H ) :   1.0165 B( 15-C , 16-C ) :   0.1895
B( 15-C , 17-C ) :   0.1596 B( 15-C , 41-H ) :   0.9528 B( 15-C , 42-H ) :   1.0149
B( 15-C , 43-H ) :   0.9426 B( 16-C , 44-H ) :   0.9285 B( 16-C , 45-H ) :   1.0804
B( 16-C , 46-H ) :   0.9269 B( 17-C , 47-H ) :   0.9631 B( 17-C , 48-H ) :   0.9916
B( 17-C , 49-H ) :   0.9893 B( 18-C , 19-C ) :   0.1341 B( 18-C , 20-C ) :   0.1371
B( 18-C , 22-H ) :   0.1010 B( 18-C , 50-H ) :   0.9212 B( 18-C , 51-H ) :   0.9529
B( 18-C , 52-H ) :   1.0152 B( 19-C , 53-H ) :   0.9203 B( 19-C , 54-H ) :   0.9677
B( 19-C , 55-H ) :   1.0297 B( 20-C , 56-H ) :   0.9406 B( 20-C , 57-H ) :   0.9919
B( 20-C , 58-H ) :   0.9930

Dispersion correction           -0.124365378
FINAL SINGLE POINT ENERGY     -2018.545929178411

DIPOLE MOMENT
-------------
                                X             Y             Z
Electronic contribution:     -1.80814      -5.14810     -26.95690
Nuclear contribution   :      1.82563       5.30534      27.72313
                        -----------------------------------------
Total Dipole Moment    :      0.01750       0.15725       0.76624
                        -----------------------------------------
Magnitude (a.u.)       :      0.78240
Magnitude (Debye)      :      1.98870

Rotational constants in cm-1:     0.009351     0.007693     0.006898
Rotational constants in MHz :   280.325632   230.636339   206.809498

                             ****ORCA TERMINATED NORMALLY****
TOTAL RUN TIME: 0 days 0 hours 42 minutes 51 seconds 943 msec
