                         Program Version 4.2.0 -  RELEASE  -
|  1> #
|  2> # MOR14_ed26 TPSSh-D3BJ/Def2-TZVPPD
|  3> #
|  4> ! tpssh d3bj def2-tzvppd def2/jk grid4 nofinalgrid
|  5>
|  6> *xyz 0 1
|  7> Ru      -0.064344   -0.175682   -0.012222
|  8> C        1.546320    1.136494   -0.983353
|  9> C        1.182588    1.622095    0.326342
| 10> C        2.076803   -0.497674    0.579629
| 11> C        2.043947   -0.183601   -0.846926
| 12> C        1.561141    0.611266    1.297590
| 13> C        1.492783    1.931783   -2.249249
| 14> H        0.696535    2.680581   -2.225612
| 15> H        1.338709    1.291322   -3.121811
| 16> H        2.442862    2.463439   -2.390633
| 17> C        2.565540   -1.075324   -1.928175
| 18> H        2.249514   -0.728507   -2.915600
| 19> H        2.192282   -2.094362   -1.786204
| 20> H        3.663236   -1.101421   -1.912436
| 21> C        2.692583   -1.723434    1.172166
| 22> H        3.783501   -1.598681    1.210971
| 23> H        2.457484   -2.606090    0.574387
| 24> H        2.333089   -1.899010    2.188816
| 25> C        1.552612    0.773239    2.786124
| 26> H        2.502734    1.205302    3.127194
| 27> H        1.421923   -0.187720    3.289969
| 28> H        0.754394    1.442873    3.118115
| 29> C        0.799428    3.031668    0.660505
| 30> H        1.693878    3.613580    0.920796
| 31> H        0.118442    3.075561    1.514596
| 32> H        0.315927    3.528553   -0.183556
| 33> Cl      -0.006885   -2.617235   -0.279085
| 34> C       -1.774511   -0.580489   -1.372668
| 35> C       -1.428717    0.775607   -1.463600
| 36> C       -2.230150    1.901113   -0.842184
| 37> C       -2.597560    1.596364    0.619137
| 38> C       -1.528383    0.747182    1.301561
| 39> C       -1.615603   -0.659023    1.435525
| 40> C       -2.738883   -1.472042    0.832207
| 41> C       -3.001399   -1.117797   -0.653050
| 42> H       -3.131417    2.097786   -1.444322
| 43> H       -3.561641    1.080890    0.673312
| 44> H       -1.631000    2.816891   -0.882167
| 45> H       -3.816216   -0.389170   -0.734954
| 46> H       -1.353755   -1.240657   -2.123162
| 47> H       -0.836828    1.063474   -2.328552
| 48> H       -3.337183   -2.018298   -1.174989
| 49> H       -2.460187   -2.525401    0.898608
| 50> H       -1.127422   -1.117347    2.293712
| 51> H       -3.660878   -1.338434    1.419672
| 52> H       -2.720080    2.533691    1.172959
| 53> H       -0.970929    1.269583    2.073632
| 54> *
| 55>
| 56> %maxcore 5000
| 57>
| 58> %pal
| 59> nprocs = 24
| 60> end
| 61>
| 62>
| 63>                          ****END OF INPUT****

CARTESIAN COORDINATES (ANGSTROEM)
---------------------------------
  Ru    -0.064344   -0.175682   -0.012222
  C      1.546320    1.136494   -0.983353
  C      1.182588    1.622095    0.326342
  C      2.076803   -0.497674    0.579629
  C      2.043947   -0.183601   -0.846926
  C      1.561141    0.611266    1.297590
  C      1.492783    1.931783   -2.249249
  H      0.696535    2.680581   -2.225612
  H      1.338709    1.291322   -3.121811
  H      2.442862    2.463439   -2.390633
  C      2.565540   -1.075324   -1.928175
  H      2.249514   -0.728507   -2.915600
  H      2.192282   -2.094362   -1.786204
  H      3.663236   -1.101421   -1.912436
  C      2.692583   -1.723434    1.172166
  H      3.783501   -1.598681    1.210971
  H      2.457484   -2.606090    0.574387
  H      2.333089   -1.899010    2.188816
  C      1.552612    0.773239    2.786124
  H      2.502734    1.205302    3.127194
  H      1.421923   -0.187720    3.289969
  H      0.754394    1.442873    3.118115
  C      0.799428    3.031668    0.660505
  H      1.693878    3.613580    0.920796
  H      0.118442    3.075561    1.514596
  H      0.315927    3.528553   -0.183556
  Cl    -0.006885   -2.617235   -0.279085
  C     -1.774511   -0.580489   -1.372668
  C     -1.428717    0.775607   -1.463600
  C     -2.230150    1.901113   -0.842184
  C     -2.597560    1.596364    0.619137
  C     -1.528383    0.747182    1.301561
  C     -1.615603   -0.659023    1.435525
  C     -2.738883   -1.472042    0.832207
  C     -3.001399   -1.117797   -0.653050
  H     -3.131417    2.097786   -1.444322
  H     -3.561641    1.080890    0.673312
  H     -1.631000    2.816891   -0.882167
  H     -3.816216   -0.389170   -0.734954
  H     -1.353755   -1.240657   -2.123162
  H     -0.836828    1.063474   -2.328552
  H     -3.337183   -2.018298   -1.174989
  H     -2.460187   -2.525401    0.898608
  H     -1.127422   -1.117347    2.293712
  H     -3.660878   -1.338434    1.419672
  H     -2.720080    2.533691    1.172959
  H     -0.970929    1.269583    2.073632

 Total Charge           Charge          ....    0
 Multiplicity           Mult            ....    1
 Number of Electrons    NEL             ....  168
 Basis Dimension        Dim             .... 1232

ORBITAL ENERGIES
----------------

  NO   OCC          E(Eh)            E(eV)
   0   2.0000    -101.283289     -2756.0584
   1   2.0000     -10.145652      -276.0772
   2   2.0000     -10.142106      -275.9807
   3   2.0000     -10.139091      -275.8987
   4   2.0000     -10.138335      -275.8781
   5   2.0000     -10.134319      -275.7688
   6   2.0000     -10.127129      -275.5732
   7   2.0000     -10.125401      -275.5262
   8   2.0000     -10.123317      -275.4695
   9   2.0000     -10.119946      -275.3777
  10   2.0000     -10.116169      -275.2750
  11   2.0000     -10.114361      -275.2258
  12   2.0000     -10.111604      -275.1507
  13   2.0000     -10.109193      -275.0851
  14   2.0000     -10.108310      -275.0611
  15   2.0000     -10.106030      -274.9990
  16   2.0000     -10.105825      -274.9935
  17   2.0000     -10.101812      -274.8843
  18   2.0000     -10.096473      -274.7390
  19   2.0000      -9.284383      -252.6409
  20   2.0000      -7.029693      -191.2877
  21   2.0000      -7.024393      -191.1434
  22   2.0000      -7.024166      -191.1373
  23   2.0000      -2.965788       -80.7032
  24   2.0000      -1.833462       -49.8910
  25   2.0000      -1.818298       -49.4784
  26   2.0000      -1.808530       -49.2126
  27   2.0000      -0.879465       -23.9315
  28   2.0000      -0.809494       -22.0274
  29   2.0000      -0.772534       -21.0217
  30   2.0000      -0.766587       -20.8599
  31   2.0000      -0.751051       -20.4371
  32   2.0000      -0.744958       -20.2713
  33   2.0000      -0.714173       -19.4336
  34   2.0000      -0.704094       -19.1594
  35   2.0000      -0.701915       -19.1001
  36   2.0000      -0.693783       -18.8788
  37   2.0000      -0.666571       -18.1383
  38   2.0000      -0.642644       -17.4872
  39   2.0000      -0.617123       -16.7928
  40   2.0000      -0.608101       -16.5473
  41   2.0000      -0.572629       -15.5820
  42   2.0000      -0.530871       -14.4457
  43   2.0000      -0.509408       -13.8617
  44   2.0000      -0.508237       -13.8298
  45   2.0000      -0.494637       -13.4598
  46   2.0000      -0.475754       -12.9459
  47   2.0000      -0.460115       -12.5204
  48   2.0000      -0.447902       -12.1880
  49   2.0000      -0.442801       -12.0492
  50   2.0000      -0.436450       -11.8764
  51   2.0000      -0.422645       -11.5007
  52   2.0000      -0.419997       -11.4287
  53   2.0000      -0.414772       -11.2865
  54   2.0000      -0.409199       -11.1349
  55   2.0000      -0.407302       -11.0833
  56   2.0000      -0.398994       -10.8572
  57   2.0000      -0.396309       -10.7841
  58   2.0000      -0.392166       -10.6714
  59   2.0000      -0.390302       -10.6206
  60   2.0000      -0.387730       -10.5507
  61   2.0000      -0.386298       -10.5117
  62   2.0000      -0.374597       -10.1933
  63   2.0000      -0.366756        -9.9799
  64   2.0000      -0.365650        -9.9498
  65   2.0000      -0.347689        -9.4611
  66   2.0000      -0.346446        -9.4273
  67   2.0000      -0.337725        -9.1900
  68   2.0000      -0.335817        -9.1380
  69   2.0000      -0.333659        -9.0793
  70   2.0000      -0.329392        -8.9632
  71   2.0000      -0.326046        -8.8722
  72   2.0000      -0.304762        -8.2930
  73   2.0000      -0.298313        -8.1175
  74   2.0000      -0.284282        -7.7357
  75   2.0000      -0.268144        -7.2966
  76   2.0000      -0.264380        -7.1941
  77   2.0000      -0.254966        -6.9380
  78   2.0000      -0.247171        -6.7259
  79   2.0000      -0.238706        -6.4955
  80   2.0000      -0.231127        -6.2893
  81   2.0000      -0.200957        -5.4683
  82   2.0000      -0.196331        -5.3424
  83   2.0000      -0.179933        -4.8962
  84   0.0000      -0.051390        -1.3984
  85   0.0000      -0.026536        -0.7221
  86   0.0000      -0.011423        -0.3108
  87   0.0000       0.003948         0.1074
  88   0.0000       0.005959         0.1622

MULLIKEN ATOMIC CHARGES
-----------------------
   0 Ru:   -2.439196
   1 C :    0.052157
   2 C :    1.121768
   3 C :    0.486747
   4 C :    0.447027
   5 C :    0.742011
   6 C :   -0.508717
   7 H :    0.117783
   8 H :    0.149655
   9 H :    0.005536
  10 C :   -0.788717
  11 H :    0.069918
  12 H :    0.082274
  13 H :    0.112097
  14 C :   -0.585269
  15 H :    0.082210
  16 H :    0.083785
  17 H :    0.047210
  18 C :   -0.524175
  19 H :    0.044112
  20 H :    0.134079
  21 H :    0.016339
  22 C :   -0.430271
  23 H :    0.032605
  24 H :    0.043977
  25 H :    0.085952
  26 Cl:   -0.558076
  27 C :   -0.788762
  28 C :    1.230668
  29 C :    0.033818
  30 C :   -0.241624
  31 C :    0.034039
  32 C :    0.768732
  33 C :   -0.023169
  34 C :    0.270630
  35 H :    0.013926
  36 H :    0.038015
  37 H :    0.036961
  38 H :    0.039591
  39 H :   -0.100224
  40 H :    0.317723
  41 H :   -0.051528
  42 H :    0.118509
  43 H :   -0.199276
  44 H :    0.088133
  45 H :    0.006489
  46 H :    0.284527
Sum of atomic charges:    0.0000000

LOEWDIN ATOMIC CHARGES
----------------------
   0 Ru:    0.985437
   1 C :   -0.206873
   2 C :   -0.220645
   3 C :   -0.255302
   4 C :   -0.234375
   5 C :   -0.228425
   6 C :    0.175616
   7 H :   -0.018268
   8 H :   -0.011422
   9 H :    0.009246
  10 C :    0.167869
  11 H :   -0.015747
  12 H :   -0.048912
  13 H :    0.001715
  14 C :    0.148887
  15 H :    0.005082
  16 H :   -0.061233
  17 H :   -0.013796
  18 C :    0.186860
  19 H :    0.005658
  20 H :   -0.009282
  21 H :   -0.022748
  22 C :    0.187568
  23 H :    0.005967
  24 H :   -0.015876
  25 H :   -0.023434
  26 Cl:    0.175631
  27 C :   -0.152834
  28 C :   -0.095258
  29 C :   -0.004680
  30 C :    0.005927
  31 C :   -0.101204
  32 C :   -0.154144
  33 C :   -0.058105
  34 C :   -0.015721
  35 H :    0.020429
  36 H :    0.000302
  37 H :   -0.009878
  38 H :    0.001244
  39 H :   -0.039371
  40 H :   -0.023504
  41 H :    0.011614
  42 H :   -0.029279
  43 H :   -0.011233
  44 H :    0.015055
  45 H :    0.012161
  46 H :   -0.040718

  Mayer bond orders larger than 0.100000
B(  0-Ru,  1-C ) :   1.0497 B(  0-Ru,  2-C ) :   0.2955 B(  0-Ru,  3-C ) :   0.3735
B(  0-Ru,  4-C ) :   0.3725 B(  0-Ru,  5-C ) :   0.1241 B(  0-Ru, 10-C ) :   0.3381
B(  0-Ru, 14-C ) :   0.1732 B(  0-Ru, 26-Cl) :   0.8140 B(  0-Ru, 27-C ) :   1.4134
B(  0-Ru, 28-C ) :  -0.3448 B(  0-Ru, 29-C ) :   0.4982 B(  0-Ru, 30-C ) :   0.2111
B(  0-Ru, 31-C ) :   0.8021 B(  0-Ru, 32-C ) :   0.2972 B(  0-Ru, 33-C ) :   0.2016
B(  0-Ru, 34-C ) :   0.1276 B(  0-Ru, 39-H ) :   0.1757 B(  0-Ru, 40-H ) :  -0.1034
B(  0-Ru, 43-H ) :   0.1207 B(  1-C ,  2-C ) :  -0.3422 B(  1-C ,  4-C ) :   0.2194
B(  1-C ,  5-C ) :  -0.5209 B(  1-C ,  6-C ) :   1.1230 B(  1-C , 10-C ) :  -0.2397
B(  1-C , 18-C ) :   0.1373 B(  1-C , 26-Cl) :   0.1607 B(  1-C , 27-C ) :   0.1445
B(  2-C ,  4-C ) :  -0.5279 B(  2-C ,  5-C ) :   0.2092 B(  2-C ,  6-C ) :  -0.2820
B(  2-C , 14-C ) :   0.1187 B(  2-C , 18-C ) :  -0.4030 B(  2-C , 22-C ) :   0.9462
B(  2-C , 27-C ) :  -0.3787 B(  2-C , 31-C ) :  -0.1322 B(  3-C ,  4-C ) :   0.3492
B(  3-C ,  5-C ) :   0.7864 B(  3-C , 10-C ) :  -0.2905 B(  3-C , 12-H ) :   0.1624
B(  3-C , 14-C ) :   1.3126 B(  3-C , 26-Cl) :  -0.1064 B(  3-C , 27-C ) :  -0.1738
B(  3-C , 28-C ) :  -0.1594 B(  3-C , 32-C ) :   0.1263 B(  4-C ,  5-C ) :  -0.3925
B(  4-C , 10-C ) :   1.3229 B(  4-C , 12-H ) :  -0.1234 B(  4-C , 14-C ) :  -0.1986
B(  4-C , 26-Cl) :  -0.4726 B(  4-C , 27-C ) :   0.2798 B(  4-C , 28-C ) :   0.1202
B(  4-C , 32-C ) :  -0.2016 B(  5-C , 10-C ) :   0.2199 B(  5-C , 17-H ) :   0.1141
B(  5-C , 18-C ) :   1.2367 B(  5-C , 21-H ) :  -0.1114 B(  5-C , 26-Cl) :   0.1934
B(  5-C , 27-C ) :   0.1137 B(  5-C , 28-C ) :   0.2738 B(  5-C , 32-C ) :   0.2370
B(  6-C ,  7-H ) :   0.9960 B(  6-C ,  8-H ) :   0.9109 B(  6-C ,  9-H ) :   0.9107
B(  6-C , 10-C ) :   0.1042 B(  6-C , 22-C ) :   0.1290 B(  6-C , 27-C ) :   0.1147
B( 10-C , 11-H ) :   0.9641 B( 10-C , 12-H ) :   0.9350 B( 10-C , 13-H ) :   0.8878
B( 10-C , 14-C ) :   0.3194 B( 10-C , 26-Cl) :   0.1542 B( 10-C , 27-C ) :  -0.1073
B( 14-C , 15-H ) :   0.8881 B( 14-C , 16-H ) :   0.9004 B( 14-C , 17-H ) :   0.9201
B( 14-C , 18-C ) :   0.1520 B( 18-C , 19-H ) :   0.9032 B( 18-C , 20-H ) :   0.8805
B( 18-C , 21-H ) :   1.0713 B( 18-C , 22-C ) :   0.1605 B( 22-C , 23-H ) :   0.8622
B( 22-C , 24-H ) :   0.9869 B( 22-C , 25-H ) :   0.9749 B( 26-Cl, 32-C ) :  -0.2500
B( 26-Cl, 34-C ) :  -0.2475 B( 26-Cl, 39-H ) :   0.2277 B( 27-C , 28-C ) :  -0.4531
B( 27-C , 32-C ) :  -0.2598 B( 27-C , 34-C ) :   1.1892 B( 27-C , 39-H ) :   1.5475
B( 27-C , 40-H ) :  -0.2612 B( 27-C , 41-H ) :   0.1137 B( 27-C , 43-H ) :   0.1255
B( 28-C , 29-C ) :   1.3317 B( 28-C , 30-C ) :   0.1447 B( 28-C , 32-C ) :   0.2061
B( 28-C , 37-H ) :   0.2150 B( 28-C , 39-H ) :  -0.4257 B( 28-C , 40-H ) :   1.0024
B( 28-C , 43-H ) :  -0.1372 B( 29-C , 30-C ) :   0.9232 B( 29-C , 34-C ) :  -0.1204
B( 29-C , 35-H ) :   0.8896 B( 29-C , 37-H ) :   0.7595 B( 29-C , 46-H ) :   0.1143
B( 30-C , 31-C ) :   1.5555 B( 30-C , 34-C ) :   0.1609 B( 30-C , 36-H ) :   0.9035
B( 30-C , 45-H ) :   0.8450 B( 31-C , 32-C ) :   0.9142 B( 31-C , 33-C ) :  -0.1531
B( 31-C , 43-H ) :  -0.1201 B( 31-C , 45-H ) :   0.1390 B( 31-C , 46-H ) :   0.6796
B( 32-C , 33-C ) :   1.2717 B( 32-C , 34-C ) :   0.1116 B( 32-C , 42-H ) :   0.1337
B( 32-C , 43-H ) :   1.1418 B( 32-C , 46-H ) :  -0.1866 B( 33-C , 34-C ) :   0.9256
B( 33-C , 39-H ) :   0.1722 B( 33-C , 42-H ) :   0.8078 B( 33-C , 44-H ) :   0.8891
B( 34-C , 38-H ) :   0.9409 B( 34-C , 41-H ) :   0.8337

Dispersion correction           -0.090868931
FINAL SINGLE POINT ENERGY     -1257.795417759948

DIPOLE MOMENT
-------------
                                X             Y             Z
Electronic contribution:     -2.97368     -21.70622      -2.00534
Nuclear contribution   :      3.57716      23.71136       2.15126
                        -----------------------------------------
Total Dipole Moment    :      0.60348       2.00514       0.14592
                        -----------------------------------------
Magnitude (a.u.)       :      2.09907
Magnitude (Debye)      :      5.33540

Rotational constants in cm-1:     0.013422     0.011126     0.009459
Rotational constants in MHz :   402.378908   333.556426   283.583792

                             ****ORCA TERMINATED NORMALLY****
TOTAL RUN TIME: 0 days 0 hours 47 minutes 46 seconds 632 msec
