                         Program Version 4.2.0 -  RELEASE  -
|  1> #
|  2> # MOR13_ed24 TPSSh-D3BJ/Def2-TZVPPD
|  3> #
|  4> ! tpssh d3bj def2-tzvppd def2/jk grid4 nofinalgrid
|  5>
|  6> *xyz 0 1
|  7> Ru       0.947158   -0.829727   -0.745491
|  8> Cl       0.759536   -0.029843   -2.889353
|  9> Cl       0.924249   -2.813196    0.406526
| 10> P       -0.892858    0.059346    0.070519
| 11> C        2.105770    0.298407    0.120511
| 12> C       -1.060848    0.304387    1.904454
| 13> C       -0.839571   -1.004781    2.681683
| 14> C       -1.204393   -0.821649    4.161076
| 15> C       -0.398097    0.318884    4.794081
| 16> C       -0.569062    1.619286    3.999752
| 17> C       -0.203235    1.422010    2.520494
| 18> C       -1.361193    1.675223   -0.723442
| 19> C       -0.190670    2.668218   -0.863157
| 20> C       -0.617010    3.874515   -1.709852
| 21> C       -1.846047    4.572418   -1.115292
| 22> C       -3.005112    3.584426   -0.940399
| 23> C       -2.585621    2.369196   -0.098214
| 24> C       -2.266825   -1.149912   -0.318948
| 25> C       -3.572387   -1.071522    0.495585
| 26> C       -4.464103   -2.278800    0.161919
| 27> C       -4.771803   -2.353480   -1.338652
| 28> C       -3.481398   -2.368379   -2.166970
| 29> C       -2.587234   -1.168835   -1.825450
| 30> H        1.784946    1.202955    0.645761
| 31> H       -2.115821    0.600966    2.014947
| 32> H        0.212402   -1.294098    2.586311
| 33> H       -1.418447   -1.824644    2.245913
| 34> H       -1.028300   -1.758851    4.701667
| 35> H       -2.278352   -0.600113    4.247046
| 36> H        0.665500    0.042496    4.804792
| 37> H       -0.699682    0.468438    5.837587
| 38> H        0.050942    2.415093    4.429614
| 39> H       -1.613622    1.955784    4.068877
| 40> H       -0.334942    2.362910    1.978268
| 41> H        0.854749    1.145201    2.447640
| 42> H       -1.618911    1.357234   -1.743817
| 43> H        0.662106    2.166051   -1.325328
| 44> H        0.125060    3.019280    0.127484
| 45> H       -0.846735    3.527698   -2.726710
| 46> H        0.219033    4.578695   -1.795316
| 47> H       -2.156025    5.410629   -1.750528
| 48> H       -1.583038    4.996180   -0.135073
| 49> H       -3.336384    3.234608   -1.928191
| 50> H       -3.864727    4.078543   -0.471441
| 51> H       -2.338056    2.702879    0.918040
| 52> H       -3.425897    1.674720   -0.010060
| 53> H       -1.782812   -2.105972   -0.070582
| 54> H       -4.113822   -0.149509    0.251918
| 55> H       -3.369403   -1.053503    1.570362
| 56> H       -5.393534   -2.221008    0.741223
| 57> H       -3.947864   -3.196972    0.475160
| 58> H       -5.374229   -1.479434   -1.625752
| 59> H       -5.376744   -3.241409   -1.557196
| 60> H       -3.714322   -2.363052   -3.238224
| 61> H       -2.925851   -3.294401   -1.964642
| 62> H       -1.666731   -1.193589   -2.417765
| 63> H       -3.111760   -0.241279   -2.093787
| 64> C        3.546496    0.126586    0.028364
| 65> C        4.389877    1.228237    0.286046
| 66> C        5.770146    1.113346    0.161104
| 67> C        6.339467   -0.106460   -0.212258
| 68> C        5.519417   -1.212931   -0.453677
| 69> C        4.139965   -1.102236   -0.332827
| 70> H        3.943201    2.177101    0.573360
| 71> H        6.405205    1.972855    0.357301
| 72> H        5.961339   -2.166857   -0.726887
| 73> H        3.508028   -1.975261   -0.480581
| 74> H        7.417884   -0.197821   -0.305099
| 75> *
| 76>
| 77> %maxcore 5000
| 78>
| 79> %pal
| 80> nprocs = 24
| 81> end
| 82>
| 83>
| 84>                          ****END OF INPUT****

CARTESIAN COORDINATES (ANGSTROEM)
---------------------------------
  Ru     0.947158   -0.829727   -0.745491
  Cl     0.759536   -0.029843   -2.889353
  Cl     0.924249   -2.813196    0.406526
  P     -0.892858    0.059346    0.070519
  C      2.105770    0.298407    0.120511
  C     -1.060848    0.304387    1.904454
  C     -0.839571   -1.004781    2.681683
  C     -1.204393   -0.821649    4.161076
  C     -0.398097    0.318884    4.794081
  C     -0.569062    1.619286    3.999752
  C     -0.203235    1.422010    2.520494
  C     -1.361193    1.675223   -0.723442
  C     -0.190670    2.668218   -0.863157
  C     -0.617010    3.874515   -1.709852
  C     -1.846047    4.572418   -1.115292
  C     -3.005112    3.584426   -0.940399
  C     -2.585621    2.369196   -0.098214
  C     -2.266825   -1.149912   -0.318948
  C     -3.572387   -1.071522    0.495585
  C     -4.464103   -2.278800    0.161919
  C     -4.771803   -2.353480   -1.338652
  C     -3.481398   -2.368379   -2.166970
  C     -2.587234   -1.168835   -1.825450
  H      1.784946    1.202955    0.645761
  H     -2.115821    0.600966    2.014947
  H      0.212402   -1.294098    2.586311
  H     -1.418447   -1.824644    2.245913
  H     -1.028300   -1.758851    4.701667
  H     -2.278352   -0.600113    4.247046
  H      0.665500    0.042496    4.804792
  H     -0.699682    0.468438    5.837587
  H      0.050942    2.415093    4.429614
  H     -1.613622    1.955784    4.068877
  H     -0.334942    2.362910    1.978268
  H      0.854749    1.145201    2.447640
  H     -1.618911    1.357234   -1.743817
  H      0.662106    2.166051   -1.325328
  H      0.125060    3.019280    0.127484
  H     -0.846735    3.527698   -2.726710
  H      0.219033    4.578695   -1.795316
  H     -2.156025    5.410629   -1.750528
  H     -1.583038    4.996180   -0.135073
  H     -3.336384    3.234608   -1.928191
  H     -3.864727    4.078543   -0.471441
  H     -2.338056    2.702879    0.918040
  H     -3.425897    1.674720   -0.010060
  H     -1.782812   -2.105972   -0.070582
  H     -4.113822   -0.149509    0.251918
  H     -3.369403   -1.053503    1.570362
  H     -5.393534   -2.221008    0.741223
  H     -3.947864   -3.196972    0.475160
  H     -5.374229   -1.479434   -1.625752
  H     -5.376744   -3.241409   -1.557196
  H     -3.714322   -2.363052   -3.238224
  H     -2.925851   -3.294401   -1.964642
  H     -1.666731   -1.193589   -2.417765
  H     -3.111760   -0.241279   -2.093787
  C      3.546496    0.126586    0.028364
  C      4.389877    1.228237    0.286046
  C      5.770146    1.113346    0.161104
  C      6.339467   -0.106460   -0.212258
  C      5.519417   -1.212931   -0.453677
  C      4.139965   -1.102236   -0.332827
  H      3.943201    2.177101    0.573360
  H      6.405205    1.972855    0.357301
  H      5.961339   -2.166857   -0.726887
  H      3.508028   -1.975261   -0.480581
  H      7.417884   -0.197821   -0.305099

 Total Charge           Charge          ....    0
 Multiplicity           Mult            ....    1
 Number of Electrons    NEL             ....  254
 Basis Dimension        Dim             .... 1794

ORBITAL ENERGIES
----------------

  NO   OCC          E(Eh)            E(eV)
   0   2.0000    -101.324870     -2757.1899
   1   2.0000    -101.323763     -2757.1598
   2   2.0000     -76.957349     -2094.1159
   3   2.0000     -10.138098      -275.8717
   4   2.0000     -10.133796      -275.7546
   5   2.0000     -10.130525      -275.6656
   6   2.0000     -10.130473      -275.6642
   7   2.0000     -10.130164      -275.6558
   8   2.0000     -10.125569      -275.5307
   9   2.0000     -10.124498      -275.5016
  10   2.0000     -10.123435      -275.4727
  11   2.0000     -10.123138      -275.4646
  12   2.0000     -10.122362      -275.4435
  13   2.0000     -10.122212      -275.4394
  14   2.0000     -10.122082      -275.4358
  15   2.0000     -10.121540      -275.4211
  16   2.0000     -10.116693      -275.2892
  17   2.0000     -10.116079      -275.2725
  18   2.0000     -10.114633      -275.2332
  19   2.0000     -10.114321      -275.2247
  20   2.0000     -10.112328      -275.1704
  21   2.0000     -10.112166      -275.1660
  22   2.0000     -10.111899      -275.1588
  23   2.0000     -10.111820      -275.1566
  24   2.0000     -10.111646      -275.1519
  25   2.0000     -10.110846      -275.1301
  26   2.0000     -10.109830      -275.1024
  27   2.0000     -10.109390      -275.0905
  28   2.0000      -9.325930      -253.7715
  29   2.0000      -9.324831      -253.7415
  30   2.0000      -7.070338      -192.3937
  31   2.0000      -7.069212      -192.3630
  32   2.0000      -7.066670      -192.2939
  33   2.0000      -7.065881      -192.2724
  34   2.0000      -7.065620      -192.2653
  35   2.0000      -7.064756      -192.2418
  36   2.0000      -6.510122      -177.1494
  37   2.0000      -4.659113      -126.7809
  38   2.0000      -4.658972      -126.7771
  39   2.0000      -4.657377      -126.7337
  40   2.0000      -2.978830       -81.0581
  41   2.0000      -1.839783       -50.0630
  42   2.0000      -1.839244       -50.0484
  43   2.0000      -1.824095       -49.6361
  44   2.0000      -0.842839       -22.9348
  45   2.0000      -0.831473       -22.6255
  46   2.0000      -0.818472       -22.2718
  47   2.0000      -0.817563       -22.2470
  48   2.0000      -0.757584       -20.6149
  49   2.0000      -0.754576       -20.5330
  50   2.0000      -0.741221       -20.1696
  51   2.0000      -0.736674       -20.0459
  52   2.0000      -0.733014       -19.9463
  53   2.0000      -0.731232       -19.8978
  54   2.0000      -0.729971       -19.8635
  55   2.0000      -0.729012       -19.8374
  56   2.0000      -0.725370       -19.7383
  57   2.0000      -0.724099       -19.7037
  58   2.0000      -0.648845       -17.6560
  59   2.0000      -0.642657       -17.4876
  60   2.0000      -0.606416       -16.5014
  61   2.0000      -0.600441       -16.3388
  62   2.0000      -0.597520       -16.2594
  63   2.0000      -0.593883       -16.1604
  64   2.0000      -0.593149       -16.1404
  65   2.0000      -0.589878       -16.0514
  66   2.0000      -0.561320       -15.2743
  67   2.0000      -0.552208       -15.0263
  68   2.0000      -0.549805       -14.9610
  69   2.0000      -0.548135       -14.9155
  70   2.0000      -0.525686       -14.3047
  71   2.0000      -0.497334       -13.5331
  72   2.0000      -0.474221       -12.9042
  73   2.0000      -0.469436       -12.7740
  74   2.0000      -0.460508       -12.5311
  75   2.0000      -0.453793       -12.3483
  76   2.0000      -0.440584       -11.9889
  77   2.0000      -0.436995       -11.8913
  78   2.0000      -0.436258       -11.8712
  79   2.0000      -0.435222       -11.8430
  80   2.0000      -0.432581       -11.7711
  81   2.0000      -0.429308       -11.6821
  82   2.0000      -0.428619       -11.6633
  83   2.0000      -0.423609       -11.5270
  84   2.0000      -0.420151       -11.4329
  85   2.0000      -0.410671       -11.1749
  86   2.0000      -0.406652       -11.0656
  87   2.0000      -0.403631       -10.9834
  88   2.0000      -0.382334       -10.4038
  89   2.0000      -0.375047       -10.2056
  90   2.0000      -0.373616       -10.1666
  91   2.0000      -0.371819       -10.1177
  92   2.0000      -0.371561       -10.1107
  93   2.0000      -0.370818       -10.0905
  94   2.0000      -0.368748       -10.0342
  95   2.0000      -0.359302        -9.7771
  96   2.0000      -0.355527        -9.6744
  97   2.0000      -0.351879        -9.5751
  98   2.0000      -0.347332        -9.4514
  99   2.0000      -0.346417        -9.4265
 100   2.0000      -0.342580        -9.3221
 101   2.0000      -0.339843        -9.2476
 102   2.0000      -0.338211        -9.2032
 103   2.0000      -0.336005        -9.1432
 104   2.0000      -0.334379        -9.0989
 105   2.0000      -0.331300        -9.0151
 106   2.0000      -0.327004        -8.8982
 107   2.0000      -0.323654        -8.8071
 108   2.0000      -0.320382        -8.7180
 109   2.0000      -0.314830        -8.5670
 110   2.0000      -0.313880        -8.5411
 111   2.0000      -0.310580        -8.4513
 112   2.0000      -0.306505        -8.3404
 113   2.0000      -0.298907        -8.1337
 114   2.0000      -0.294743        -8.0204
 115   2.0000      -0.293422        -7.9844
 116   2.0000      -0.287765        -7.8305
 117   2.0000      -0.282779        -7.6948
 118   2.0000      -0.279903        -7.6165
 119   2.0000      -0.276590        -7.5264
 120   2.0000      -0.273349        -7.4382
 121   2.0000      -0.270495        -7.3605
 122   2.0000      -0.263456        -7.1690
 123   2.0000      -0.251612        -6.8467
 124   2.0000      -0.214269        -5.8306
 125   2.0000      -0.206842        -5.6285
 126   2.0000      -0.191009        -5.1976
 127   0.0000      -0.087247        -2.3741
 128   0.0000      -0.079837        -2.1725
 129   0.0000      -0.049691        -1.3522
 130   0.0000      -0.027499        -0.7483
 131   0.0000      -0.011081        -0.3015

MULLIKEN ATOMIC CHARGES
-----------------------
   0 Ru:   -2.056535
   1 Cl:   -0.593857
   2 Cl:   -0.593157
   3 P :    0.360611
   4 C :    1.126671
   5 C :   -0.043205
   6 C :   -0.150522
   7 C :   -0.101519
   8 C :    0.099773
   9 C :   -0.171714
  10 C :    0.316378
  11 C :    0.053088
  12 C :    0.032822
  13 C :   -0.152057
  14 C :    0.116177
  15 C :   -0.146128
  16 C :    0.431636
  17 C :    0.172262
  18 C :    0.439340
  19 C :   -0.094924
  20 C :    0.044869
  21 C :   -0.083633
  22 C :   -0.180936
  23 H :    0.317918
  24 H :    0.653067
  25 H :    0.027841
  26 H :    0.098757
  27 H :   -0.088093
  28 H :    0.064898
  29 H :    0.060958
  30 H :   -0.059173
  31 H :   -0.080357
  32 H :    0.076940
  33 H :   -0.260214
  34 H :    0.141010
  35 H :    0.592725
  36 H :   -0.089701
  37 H :    0.095678
  38 H :    0.033287
  39 H :   -0.078059
  40 H :   -0.069535
  41 H :    0.051752
  42 H :    0.049149
  43 H :   -0.075982
  44 H :    0.129495
  45 H :   -0.335057
  46 H :    0.405393
  47 H :   -0.003435
  48 H :   -0.182183
  49 H :   -0.072873
  50 H :    0.065014
  51 H :    0.069177
  52 H :   -0.070107
  53 H :   -0.071056
  54 H :    0.035812
  55 H :    0.143945
  56 H :    0.093478
  57 C :    0.210819
  58 C :   -0.200910
  59 C :   -0.292679
  60 C :   -0.103663
  61 C :   -0.426712
  62 C :    0.025497
  63 H :    0.043359
  64 H :    0.051625
  65 H :    0.029063
  66 H :    0.089207
  67 H :    0.078485
Sum of atomic charges:   -0.0000000

LOEWDIN ATOMIC CHARGES
----------------------
   0 Ru:    0.374207
   1 Cl:   -0.009002
   2 Cl:   -0.007796
   3 P :    0.983235
   4 C :   -0.136451
   5 C :   -0.275445
   6 C :   -0.055779
   7 C :   -0.001219
   8 C :   -0.010054
   9 C :   -0.000821
  10 C :   -0.020828
  11 C :   -0.282461
  12 C :   -0.052558
  13 C :   -0.000061
  14 C :   -0.011587
  15 C :   -0.001779
  16 C :   -0.010773
  17 C :   -0.283351
  18 C :   -0.015781
  19 C :   -0.000573
  20 C :   -0.011792
  21 C :   -0.001834
  22 C :   -0.042808
  23 H :   -0.079204
  24 H :   -0.007189
  25 H :   -0.022658
  26 H :   -0.010185
  27 H :    0.013824
  28 H :    0.018103
  29 H :    0.020401
  30 H :    0.009877
  31 H :    0.012485
  32 H :    0.019697
  33 H :   -0.012452
  34 H :    0.003980
  35 H :   -0.024497
  36 H :   -0.053726
  37 H :   -0.000023
  38 H :    0.022697
  39 H :    0.013467
  40 H :    0.009834
  41 H :    0.018007
  42 H :    0.020829
  43 H :    0.011833
  44 H :    0.013313
  45 H :   -0.010150
  46 H :   -0.043000
  47 H :    0.003113
  48 H :   -0.005249
  49 H :    0.012163
  50 H :    0.022212
  51 H :    0.017925
  52 H :    0.009986
  53 H :    0.013114
  54 H :    0.022441
  55 H :   -0.046831
  56 H :    0.016660
  57 C :   -0.238400
  58 C :    0.044853
  59 C :    0.018096
  60 C :    0.019504
  61 C :    0.025207
  62 C :    0.032604
  63 H :    0.006691
  64 H :   -0.001120
  65 H :    0.001971
  66 H :   -0.042856
  67 H :   -0.002036

  Mayer bond orders larger than 0.100000
B(  0-Ru,  1-Cl) :   1.9266 B(  0-Ru,  2-Cl) :   1.8681 B(  0-Ru,  3-P ) :  -0.6114
B(  0-Ru,  4-C ) :   1.3178 B(  0-Ru,  5-C ) :   0.2884 B(  0-Ru, 11-C ) :   0.3096
B(  0-Ru, 16-C ) :  -0.1195 B(  0-Ru, 18-C ) :  -0.1039 B(  0-Ru, 22-C ) :   0.2644
B(  0-Ru, 55-H ) :  -0.1207 B(  0-Ru, 57-C ) :  -0.1804 B(  0-Ru, 62-C ) :   0.1443
B(  1-Cl,  3-P ) :  -0.9457 B(  1-Cl,  4-C ) :  -0.1248 B(  1-Cl, 22-C ) :   0.1047
B(  1-Cl, 36-H ) :   0.1815 B(  1-Cl, 55-H ) :  -0.1567 B(  1-Cl, 57-C ) :  -0.2831
B(  2-Cl,  3-P ) :  -0.7554 B(  2-Cl,  4-C ) :  -0.3244 B(  2-Cl,  6-C ) :   0.1468
B(  2-Cl, 22-C ) :   0.1131 B(  2-Cl, 46-H ) :  -0.1235 B(  3-P ,  5-C ) :   0.9162
B(  3-P ,  6-C ) :   0.5942 B(  3-P , 10-C ) :  -0.2434 B(  3-P , 11-C ) :   0.7215
B(  3-P , 12-C ) :   0.8300 B(  3-P , 15-C ) :  -0.1438 B(  3-P , 16-C ) :   0.1569
B(  3-P , 17-C ) :   0.6593 B(  3-P , 18-C ) :   0.4555 B(  3-P , 22-C ) :   0.3518
B(  3-P , 24-H ) :   0.1861 B(  3-P , 35-H ) :  -0.4318 B(  3-P , 36-H ) :  -0.1005
B(  3-P , 45-H ) :   0.1075 B(  3-P , 48-H ) :   0.1171 B(  3-P , 55-H ) :   0.1253
B(  3-P , 57-C ) :  -0.1029 B(  4-C , 23-H ) :   0.7278 B(  4-C , 57-C ) :   0.7315
B(  4-C , 58-C ) :  -0.5711 B(  4-C , 61-C ) :  -0.1876 B(  4-C , 62-C ) :   0.1890
B(  4-C , 63-H ) :  -0.1224 B(  5-C ,  6-C ) :   1.1653 B(  5-C ,  7-C ) :   0.4334
B(  5-C ,  9-C ) :   0.3678 B(  5-C , 10-C ) :   1.1473 B(  5-C , 11-C ) :   0.1115
B(  5-C , 16-C ) :   0.1300 B(  5-C , 18-C ) :   0.1283 B(  5-C , 24-H ) :   0.4222
B(  6-C ,  7-C ) :   0.8979 B(  6-C ,  8-C ) :   0.1486 B(  6-C , 11-C ) :   0.1061
B(  6-C , 17-C ) :   0.1915 B(  6-C , 24-H ) :  -0.1098 B(  6-C , 25-H ) :   0.7272
B(  6-C , 26-H ) :   0.8199 B(  7-C ,  8-C ) :   0.9505 B(  7-C ,  9-C ) :   0.1370
B(  7-C , 27-H ) :   0.9467 B(  7-C , 28-H ) :   0.9116 B(  8-C ,  9-C ) :   0.9482
B(  8-C , 10-C ) :   0.1474 B(  8-C , 29-H ) :   0.9166 B(  8-C , 30-H ) :   0.9395
B(  9-C , 10-C ) :   0.6308 B(  9-C , 31-H ) :   0.8891 B(  9-C , 32-H ) :   0.9254
B(  9-C , 33-H ) :   0.3536 B(  9-C , 34-H ) :  -0.1323 B( 10-C , 24-H ) :  -0.1056
B( 10-C , 33-H ) :   0.8385 B( 10-C , 34-H ) :   0.8759 B( 11-C , 12-C ) :   0.7663
B( 11-C , 13-C ) :   0.5087 B( 11-C , 15-C ) :   0.4525 B( 11-C , 16-C ) :   1.2264
B( 11-C , 17-C ) :   0.2619 B( 11-C , 18-C ) :  -0.1205 B( 11-C , 22-C ) :   0.1121
B( 11-C , 33-H ) :   0.1001 B( 11-C , 35-H ) :   0.6231 B( 12-C , 13-C ) :   0.8244
B( 12-C , 14-C ) :   0.1365 B( 12-C , 16-C ) :  -0.1488 B( 12-C , 36-H ) :   0.6624
B( 12-C , 37-H ) :   0.8560 B( 13-C , 14-C ) :   0.9355 B( 13-C , 15-C ) :   0.1596
B( 13-C , 36-H ) :   0.1483 B( 13-C , 38-H ) :   0.9317 B( 13-C , 39-H ) :   0.8922
B( 14-C , 15-C ) :   0.9530 B( 14-C , 16-C ) :   0.1119 B( 14-C , 40-H ) :   0.9435
B( 14-C , 41-H ) :   0.9228 B( 15-C , 16-C ) :   0.7451 B( 15-C , 42-H ) :   0.8730
B( 15-C , 43-H ) :   0.9192 B( 15-C , 45-H ) :   0.3001 B( 16-C , 17-C ) :   0.1102
B( 16-C , 35-H ) :  -0.1620 B( 16-C , 44-H ) :   0.8724 B( 16-C , 45-H ) :   0.7146
B( 17-C , 18-C ) :   0.8686 B( 17-C , 19-C ) :   0.4101 B( 17-C , 21-C ) :   0.3711
B( 17-C , 22-C ) :   1.0049 B( 17-C , 46-H ) :   0.7478 B( 17-C , 50-H ) :   0.1076
B( 17-C , 55-H ) :   0.1697 B( 18-C , 19-C ) :   0.7696 B( 18-C , 20-C ) :   0.1689
B( 18-C , 47-H ) :   0.9151 B( 18-C , 48-H ) :   0.7842 B( 19-C , 20-C ) :   0.9635
B( 19-C , 21-C ) :   0.1293 B( 19-C , 48-H ) :   0.2333 B( 19-C , 49-H ) :   0.9080
B( 19-C , 50-H ) :   0.9212 B( 20-C , 21-C ) :   0.9295 B( 20-C , 22-C ) :   0.1948
B( 20-C , 51-H ) :   0.9343 B( 20-C , 52-H ) :   0.9283 B( 21-C , 22-C ) :   0.9855
B( 21-C , 53-H ) :   0.9403 B( 21-C , 54-H ) :   0.9120 B( 22-C , 55-H ) :   0.7124
B( 22-C , 56-H ) :   0.9354 B( 23-H , 57-C ) :   0.1567 B( 57-C , 58-C ) :   1.4367
B( 57-C , 62-C ) :   0.4072 B( 57-C , 66-H ) :  -0.1942 B( 58-C , 59-C ) :   1.1753
B( 58-C , 63-H ) :   1.1314 B( 59-C , 60-C ) :   1.2425 B( 59-C , 64-H ) :   1.0744
B( 60-C , 61-C ) :   1.1663 B( 60-C , 67-H ) :   1.0516 B( 61-C , 62-C ) :   1.3567
B( 61-C , 65-H ) :   1.1005 B( 62-C , 66-H ) :   1.0518

Dispersion correction           -0.136189727
FINAL SINGLE POINT ENERGY     -2333.600757923030

DIPOLE MOMENT
-------------
                                X             Y             Z
Electronic contribution:     94.51331     -73.91811     -66.33782
Nuclear contribution   :    -95.45400      75.19378      67.48059
                        -----------------------------------------
Total Dipole Moment    :     -0.94069       1.27567       1.14277
                        -----------------------------------------
Magnitude (a.u.)       :      1.95401
Magnitude (Debye)      :      4.96670

Rotational constants in cm-1:     0.004948     0.003136     0.003087
Rotational constants in MHz :   148.341837    94.004802    92.554473

                             ****ORCA TERMINATED NORMALLY****
TOTAL RUN TIME: 0 days 1 hours 48 minutes 0 seconds 213 msec
