                         Program Version 4.2.0 -  RELEASE  -
|  1> #
|  2> # MOR24_pme3 TPSSh-D3BJ/Def2-TZVPPD
|  3> #
|  4> ! tpssh d3bj def2-tzvppd def2/jk grid4 nofinalgrid
|  5>
|  6> *xyz 0 1
|  7> P        0.000014   -0.000022   -0.608033
|  8> C        1.496142   -0.644859    0.281510
|  9> H        1.381991   -0.595756    1.371521
| 10> H        2.374450   -0.059896   -0.010082
| 11> H        1.674284   -1.684941   -0.010215
| 12> C       -0.189596    1.618079    0.281483
| 13> H       -0.175035    1.494773    1.371519
| 14> H       -1.135286    2.086341   -0.010098
| 15> H        0.622176    2.292253   -0.010285
| 16> C       -1.306577   -0.973225    0.281488
| 17> H       -1.206743   -0.899098    1.371498
| 18> H       -1.239562   -2.026308   -0.010273
| 19> H       -2.296301   -0.607013   -0.009976
| 20> *
| 21>
| 22> %maxcore 5000
| 23>
| 24> %pal
| 25> nprocs = 24
| 26> end
| 27>
| 28>
| 29>                          ****END OF INPUT****

CARTESIAN COORDINATES (ANGSTROEM)
---------------------------------
  P      0.000014   -0.000022   -0.608033
  C      1.496142   -0.644859    0.281510
  H      1.381991   -0.595756    1.371521
  H      2.374450   -0.059896   -0.010082
  H      1.674284   -1.684941   -0.010215
  C     -0.189596    1.618079    0.281483
  H     -0.175035    1.494773    1.371519
  H     -1.135286    2.086341   -0.010098
  H      0.622176    2.292253   -0.010285
  C     -1.306577   -0.973225    0.281488
  H     -1.206743   -0.899098    1.371498
  H     -1.239562   -2.026308   -0.010273
  H     -2.296301   -0.607013   -0.009976

 Total Charge           Charge          ....    0
 Multiplicity           Mult            ....    1
 Number of Electrons    NEL             ....   42
 Basis Dimension        Dim             ....  312

ORBITAL ENERGIES
----------------

  NO   OCC          E(Eh)            E(eV)
   0   2.0000     -76.907624     -2092.7628
   1   2.0000     -10.108135      -275.0563
   2   2.0000     -10.108134      -275.0563
   3   2.0000     -10.108132      -275.0563
   4   2.0000      -6.462662      -175.8580
   5   2.0000      -4.612289      -125.5068
   6   2.0000      -4.612288      -125.5067
   7   2.0000      -4.607144      -125.3667
   8   2.0000      -0.737445       -20.0669
   9   2.0000      -0.669738       -18.2245
  10   2.0000      -0.669734       -18.2244
  11   2.0000      -0.507785       -13.8175
  12   2.0000      -0.420362       -11.4386
  13   2.0000      -0.408240       -11.1088
  14   2.0000      -0.408233       -11.1086
  15   2.0000      -0.382447       -10.4069
  16   2.0000      -0.382440       -10.4067
  17   2.0000      -0.370194       -10.0735
  18   2.0000      -0.309441        -8.4203
  19   2.0000      -0.309434        -8.4201
  20   2.0000      -0.214292        -5.8312
  21   0.0000       0.006041         0.1644
  22   0.0000       0.017346         0.4720
  23   0.0000       0.017358         0.4723
  24   0.0000       0.043991         1.1971
  25   0.0000       0.061468         1.6726

MULLIKEN ATOMIC CHARGES
-----------------------
   0 P :   -0.175299
   1 C :   -0.225279
   2 H :    0.118813
   3 H :    0.082553
   4 H :    0.082086
   5 C :   -0.223136
   6 H :    0.118084
   7 H :    0.082238
   8 H :    0.081679
   9 C :   -0.224414
  10 H :    0.118429
  11 H :    0.082012
  12 H :    0.082233
Sum of atomic charges:    0.0000000

LOEWDIN ATOMIC CHARGES
----------------------
   0 P :    0.861081
   1 C :   -0.090209
   2 H :   -0.061056
   3 H :   -0.067879
   4 H :   -0.067878
   5 C :   -0.090208
   6 H :   -0.061053
   7 H :   -0.067877
   8 H :   -0.067889
   9 C :   -0.090195
  10 H :   -0.061063
  11 H :   -0.067893
  12 H :   -0.067880

  Mayer bond orders larger than 0.100000
B(  0-P ,  1-C ) :   0.8977 B(  0-P ,  5-C ) :   0.8976 B(  0-P ,  9-C ) :   0.8977
B(  1-C ,  2-H ) :   0.9505 B(  1-C ,  3-H ) :   1.0024 B(  1-C ,  4-H ) :   1.0026
B(  5-C ,  6-H ) :   0.9502 B(  5-C ,  7-H ) :   1.0027 B(  5-C ,  8-H ) :   1.0026
B(  9-C , 10-H ) :   0.9507 B(  9-C , 11-H ) :   1.0027 B(  9-C , 12-H ) :   1.0022

Dispersion correction           -0.011789514
FINAL SINGLE POINT ENERGY      -461.200228162831

DIPOLE MOMENT
-------------
                                X             Y             Z
Electronic contribution:      0.00012      -0.00038      -4.31202
Nuclear contribution   :     -0.00004       0.00039       4.80319
                        -----------------------------------------
Total Dipole Moment    :      0.00008       0.00001       0.49117
                        -----------------------------------------
Magnitude (a.u.)       :      0.49117
Magnitude (Debye)      :      1.24844

Rotational constants in cm-1:     0.191522     0.191510     0.123399
Rotational constants in MHz :  5741.693239  5741.320508  3699.411170

                             ****ORCA TERMINATED NORMALLY****
TOTAL RUN TIME: 0 days 0 hours 0 minutes 15 seconds 833 msec
