                         Program Version 4.2.0 -  RELEASE  -
|  1> # input to generate an atomic fitting density for Pd
|  2> # this file is use internally by ORCA
|  3> #
|  4> # atomic ground state (S=3): 1s2 2s2 2p6 3s2 3p6 4s2 3d10 4p6 5s2 4d8
|  5> #
|  6> ! RHF AllowRHF def2-SVP def2/J  NoMulliken NoLoewdin NoMayer NoPrintMOs
|  7>
|  8> %output print[p_atomdensfit] 2 end
|  9>
| 10> %scf
| 11>   guess hcore
| 12>   maxiter 1000
| 13>   maxdisk 500000
| 14>   SCFMode Conventional
| 15>   lshift 1.000000
| 16>   hftyp rohf
| 17>   rohf_case sahf
| 18>   rohf_numop   2
| 19>   rohf_norb[1] 5
| 20>   rohf_nel[1]  8
| 21> end
| 22>
| 23> %basis
| 24>   NewECP 46
| 25>     N_core 28
| 26>     lmax f
| 27>     s 4
| 28>       1      12.4300000000    240.2290403000  2
| 29>       2       6.1707594000     35.1719435000  2
| 30>       3      13.2700000000     31.9295543000  2
| 31>       4       6.6300000000      5.3982169000  2
| 32>     p 4
| 33>       1      11.0800000000    170.4172760000  2
| 34>       2       5.8295541000     28.4721329000  2
| 35>       3      13.2700000000     31.9295543000  2
| 36>       4       6.6300000000      5.3982169000  2
| 37>     d 4
| 38>       1       9.5100000000     69.0138449000  2
| 39>       2       4.1397811000     11.7508616000  2
| 40>       3      13.2700000000     31.9295543000  2
| 41>       4       6.6300000000      5.3982169000  2
| 42>     f 2
| 43>       1      13.2700000000    -31.9295543000  2
| 44>       2       6.6300000000     -5.3982169000  2
| 45>   end
| 46>   NewGTO 46
| 47>     s 2
| 48>      1      18.0000000000     -0.8955869481
| 49>      2      14.6621343080      1.8822771923
| 50>     s 1
| 51>      1       5.6388709265      1.0000000000
| 52>     s 1
| 53>      1       1.3198953252      1.0000000000
| 54>     s 1
| 55>      1       0.5781790851      1.0000000000
| 56>     s 1
| 57>      1       0.1035216624      1.0000000000
| 58>     s 1
| 59>      1       0.0375484427      1.0000000000
| 60>     p 4
| 61>      1      12.5528993000      0.0701895210
| 62>      2       7.2444496380     -0.2749252830
| 63>      3       1.8905941078      0.5623121361
| 64>      4       0.9073716876      0.5736959368
| 65>     p 1
| 66>      1       0.4087721081      1.0000000000
| 67>     p 1
| 68>      1       0.1150000000      1.0000000000
| 69>     p 1
| 70>      1       0.0370000000      1.0000000000
| 71>     d 4
| 72>      1      22.3574575750      0.0063445039
| 73>      2      10.6825263820     -0.0225156052
| 74>      3       2.4858232550      0.3884291800
| 75>      4       1.0735333903      0.6828976806
| 76>     d 1
| 77>      1       0.4261384285      1.0000000000
| 78>     d 1
| 79>      1       0.1504635538      1.0000000000
| 80>   end
| 81>   NewAuxGTO 46
| 82>     S 1
| 83>      1 1310.72 1.0
| 84>     S 1
| 85>      1  655.36 1.0
| 86>     S 1
| 87>      1  327.68 1.0
| 88>     S 1
| 89>      1  163.84 1.0
| 90>     S 1
| 91>      1   81.82 1.0
| 92>     S 1
| 93>      1   40.96 1.0
| 94>     S 1
| 95>      1   20.48 1.0
| 96>     S 1
| 97>      1   10.24 1.0
| 98>     S 1
| 99>      1    5.12 1.0
|100>     S 1
|101>      1    2.56 1.0
|102>     S 1
|103>      1    1.28 1.0
|104>     S 1
|105>      1    0.64 1.0
|106>     S 1
|107>      1    0.32 1.0
|108>     S 1
|109>      1    0.16 1.0
|110>     S 1
|111>      1    0.08 1.0
|112>     S 1
|113>      1    0.04 1.0
|114>     S 1
|115>      1    0.02 1.0
|116>     S 1
|117>      1    0.01 1.0
|118>   end
|119> end
|120>
|121> * xyz 0 3
|122> 46  0.0 0.0 0.0
|123> *
|124>
|125>
|126>                          ****END OF INPUT****

CARTESIAN COORDINATES (ANGSTROEM)
---------------------------------
  Pd     0.000000    0.000000    0.000000

 Total Charge           Charge          ....    0
 Multiplicity           Mult            ....    3
 Number of Electrons    NEL             ....   18
 Basis Dimension        Dim             ....   33

ORBITAL ENERGIES
----------------

  NO   OCC          E(Eh)            E(eV)
   0   2.0000      -4.140442      -112.6672
   1   2.0000      -2.670475       -72.6673
   2   2.0000      -2.666425       -72.5571
   3   2.0000      -2.665374       -72.5285
   4   2.0000      -0.537779       -14.6337
   5   1.6000      -0.554645       -15.0927
   6   1.6000      -0.551491       -15.0068
   7   1.6000      -0.548380       -14.9222
   8   1.6000      -0.536386       -14.5958
   9   1.6000      -0.264322        -7.1926
  10   0.0000       0.010059         0.2737
  11   0.0000       0.011964         0.3256
  12   0.0000       0.012453         0.3389
  13   0.0000       0.128804         3.5049
  14   0.0000       0.208239         5.6665

CleanUpVectors: The p-vectors have cracked symmetry
CleanUpVectors: The p-vectors have cracked symmetry
CleanUpVectors: The p-vectors have cracked symmetry
CleanUpVectors: The d-vectors have cracked symmetry at i=4
CleanUpVectors: The d-vectors have cracked symmetry at i=5
CleanUpVectors: The d-vectors have cracked symmetry at i=6
CleanUpVectors: The d-vectors have cracked symmetry at i=7
CleanUpVectors: The d-vectors have cracked symmetry at i=8
CleanUpVectors: The p-vectors have cracked symmetry
CleanUpVectors: The p-vectors have cracked symmetry
CleanUpVectors: The p-vectors have cracked symmetry
CleanUpVectors: The p-vectors have cracked symmetry
CleanUpVectors: The p-vectors have cracked symmetry
CleanUpVectors: The p-vectors have cracked symmetry
CleanUpVectors: The d-vectors have cracked symmetry at i=17
CleanUpVectors: The d-vectors have cracked symmetry at i=18
CleanUpVectors: The d-vectors have cracked symmetry at i=19
CleanUpVectors: The d-vectors have cracked symmetry at i=20
CleanUpVectors: The d-vectors have cracked symmetry at i=21
CleanUpVectors: The p-vectors have cracked symmetry
CleanUpVectors: The p-vectors have cracked symmetry
CleanUpVectors: The p-vectors have cracked symmetry
CleanUpVectors: The d-vectors have cracked symmetry at i=26
CleanUpVectors: The d-vectors have cracked symmetry at i=27
CleanUpVectors: The d-vectors have cracked symmetry at i=28
--------------------------
ATOM BASIS FOR ELEMENT Pd
--------------------------
 NewGTO Pd
 S 7
    1         18.000000000000        -0.166184318233
    2         14.662134308000         0.349273683132
    3          5.638870926500        -0.689169743198
    4          1.319895325200         0.897811581133
    5          0.578179085100         0.411220279005
    6          0.103521662400         0.011506803195
    7          0.037548442700         0.000892790225
 P 20
    1         12.552899300000        -0.060746032417
    2          7.244449638000         0.237936089538
    3          1.890594107800        -0.486657135726
    4          0.907371687600        -0.496509328995
    5         12.552899300000         0.009059524728
    6          7.244449638000        -0.035485245721
    7          1.890594107800         0.072578935279
    8          0.907371687600         0.074048268913
    9         12.552899300000         0.006125808833
   10          7.244449638000        -0.023994176095
   11          1.890594107800         0.049075938985
   12          0.907371687600         0.050069463174
   13          0.408772108100        -0.152673872977
   14          0.408772108100         0.022769433205
   15          0.408772108100         0.015396083043
   16          0.115000000000        -0.006215126055
   17          0.115000000000         0.000926909725
   18          0.115000000000         0.000626751618
   19          0.037000000000         0.000450929693
   20          0.037000000000        -0.000067250626
 D 20
    1         18.000000000000        -0.000002539150
    2         14.662134308000         0.000006551481
    3          5.638870926500        -0.000035870336
    4          1.319895325200         0.000318468611
    5          0.578179085100        -0.000195039086
    6          0.103521662400        -0.001690062112
    7          0.037548442700         0.004305575597
    8         22.357457575000        -0.000285608590
    9         10.682526382000         0.001013578109
   10          2.485823255000        -0.017485797524
   11          1.073533390300        -0.030741795899
   12         22.357457575000         0.000808352745
   13         10.682526382000        -0.002868711494
   14          2.485823255000         0.049489731378
   15          1.073533390300         0.087007939958
   16         22.357457575000         0.000275202586
   17         10.682526382000        -0.000976648905
   18          2.485823255000         0.016848711362
   19          1.073533390300         0.029621734160
   20         22.357457575000         0.002623799287
 D 20
    1         22.357457575000         0.000195247126
    2         10.682526382000        -0.000692900073
    3          2.485823255000         0.011953603056
    4          1.073533390300         0.021015639972
    5         22.357457575000        -0.001804022499
    6         10.682526382000         0.006402180376
    7          2.485823255000        -0.110447560772
    8          1.073533390300        -0.194177953054
    9         22.357457575000         0.003749594760
   10         10.682526382000        -0.013306697671
   11          2.485823255000         0.229561214045
   12          1.073533390300         0.403591770904
   13         22.357457575000         0.000645807067
   14         10.682526382000        -0.002291863507
   15          2.485823255000         0.039538207158
   16          1.073533390300         0.069512156535
   17         22.357457575000        -0.000380673750
   18         10.682526382000         0.001350948789
   19          2.485823255000        -0.023305966056
   20          1.073533390300        -0.040974239277
 P 20
    1         12.552899300000        -0.001594908029
    2          7.244449638000         0.006247094080
    3          1.890594107800        -0.012777350917
    4          0.907371687600        -0.013036023648
    5         12.552899300000        -0.008118046635
    6          7.244449638000         0.031797570872
    7          1.890594107800        -0.065036433916
    8          0.907371687600        -0.066353072406
    9         12.552899300000        -0.003809895349
   10          7.244449638000         0.014922976279
   11          1.890594107800        -0.030522368030
   12          0.907371687600        -0.031140282053
   13          0.408772108100         0.003073917909
   14          0.408772108100         0.015646174254
   15          0.408772108100         0.007342934723
   16          0.115000000000         0.006982112099
   17          0.115000000000         0.035538796352
   18          0.115000000000         0.016678777668
   19          0.037000000000         0.170173072244
   20          0.037000000000         0.866177178631
 P 20
    1         12.552899300000        -0.002846247337
    2          7.244449638000         0.011148464094
    3          1.890594107800        -0.022802255910
    4          0.907371687600        -0.023263879126
    5         12.552899300000        -0.014487336073
    6          7.244449638000         0.056745435973
    7          1.890594107800        -0.116062978886
    8          0.907371687600        -0.118412630859
    9         12.552899300000        -0.006799078252
   10          7.244449638000         0.026631304586
   11          1.890594107800        -0.054469729395
   12          0.907371687600        -0.055572448870
   13          0.408772108100        -0.038572305422
   14          0.408772108100        -0.196332182545
   15          0.408772108100        -0.092141016519
   16          0.115000000000         0.272954257020
   17          0.115000000000         1.389331138742
   18          0.115000000000         0.652029543737
   19          0.037000000000        -0.181920197652
   20          0.037000000000        -0.925969787476
 D 20
    1         18.000000000000        -0.000002917753
    2         14.662134308000         0.000007528348
    3          5.638870926500        -0.000041556651
    4          1.319895325200         0.000385370548
    5          0.578179085100        -0.000065180692
    6          0.103521662400        -0.006534203091
    7          0.037548442700         0.005531086455
    8         22.357457575000        -0.000110631729
    9         10.682526382000         0.000392613887
   10          2.485823255000        -0.006773199686
   11          1.073533390300        -0.011907968283
   12         22.357457575000         0.000294187107
   13         10.682526382000        -0.001044021858
   14          2.485823255000         0.018010999517
   15          1.073533390300         0.031665153981
   16         22.357457575000         0.000100805539
   17         10.682526382000        -0.000357742346
   18          2.485823255000         0.006171611425
   19          1.073533390300         0.010850315436
   20         22.357457575000         0.000948527838
 P 20
    1         12.552899300000        -0.016067010850
    2          7.244449638000         0.062932862940
    3          1.890594107800        -0.128718291038
    4          0.907371687600        -0.131324145113
    5         12.552899300000        -0.081780730311
    6          7.244449638000         0.320326882196
    7          1.890594107800        -0.655173258030
    8          0.907371687600        -0.668436997712
    9         12.552899300000        -0.038380664467
   10          7.244449638000         0.150333196323
   11          1.890594107800        -0.307480562824
   12          0.907371687600        -0.313705392810
   13          0.408772108100         0.361912568295
   14          0.408772108100         1.842126978072
   15          0.408772108100         0.864531989162
   16          0.115000000000        -0.211849087404
   17          0.115000000000        -1.078307175196
   18          0.115000000000        -0.506062317200
   19          0.037000000000         0.076062548067
   20          0.037000000000         0.387156689459
 D 20
    1         22.357457575000         0.002071440902
    2         10.682526382000        -0.007351204487
    3          2.485823255000         0.126819701511
    4          1.073533390300         0.222961827987
    5         22.357457575000         0.005908982817
    6         10.682526382000        -0.020970012208
    7          2.485823255000         0.361765298964
    8          1.073533390300         0.636019888063
    9         22.357457575000         0.002736259579
   10         10.682526382000        -0.009710537086
   11          2.485823255000         0.167521855357
   12          1.073533390300         0.294520320211
   13         22.357457575000        -0.000619758125
   14         10.682526382000         0.002199420079
   15          2.485823255000        -0.037943414356
   16          1.073533390300        -0.066708349918
   17         22.357457575000        -0.001039931602
   18         10.682526382000         0.003690546929
   19          2.485823255000        -0.063667669815
   20          1.073533390300        -0.111934185907
 end
  // -----------------------------------------------
  // The basis set
  // -----------------------------------------------
  BAS[ATNO] = new BFNGauss[NSH];
  // Basis function   1 L = s
  InitBFNGauss(BAS[ATNO][  0]);
  BAS[ATNO][  0].l  = 0;
  BAS[ATNO][  0].ng = 7;
  BAS[ATNO][  0].a[  0] =        18.000000000000;     BAS[ATNO][  0].d[  0] =        -0.166184318233;
  BAS[ATNO][  0].a[  1] =        14.662134308000;     BAS[ATNO][  0].d[  1] =         0.349273683132;
  BAS[ATNO][  0].a[  2] =         5.638870926500;     BAS[ATNO][  0].d[  2] =        -0.689169743198;
  BAS[ATNO][  0].a[  3] =         1.319895325200;     BAS[ATNO][  0].d[  3] =         0.897811581133;
  BAS[ATNO][  0].a[  4] =         0.578179085100;     BAS[ATNO][  0].d[  4] =         0.411220279005;
  BAS[ATNO][  0].a[  5] =         0.103521662400;     BAS[ATNO][  0].d[  5] =         0.011506803195;
  BAS[ATNO][  0].a[  6] =         0.037548442700;     BAS[ATNO][  0].d[  6] =         0.000892790225;

FINAL SINGLE POINT ENERGY      -126.956245915888

DIPOLE MOMENT
-------------
                                X             Y             Z
Electronic contribution:      0.00000      -0.00000      -0.00000
Nuclear contribution   :      0.00000       0.00000       0.00000
                        -----------------------------------------
Total Dipole Moment    :      0.00000      -0.00000      -0.00000
                        -----------------------------------------
Magnitude (a.u.)       :      0.00000
Magnitude (Debye)      :      0.00000

Rotational constants in cm-1:     0.000000     0.000000     0.000000
Rotational constants in MHz :     0.000000     0.000000     0.000000

                             ****ORCA TERMINATED NORMALLY****
TOTAL RUN TIME: 0 days 0 hours 0 minutes 1 seconds 546 msec
