                         Program Version 4.2.0 -  RELEASE  -
|  1> #
|  2> # MOR23_phseh TPSSh-D3BJ/Def2-TZVPPD
|  3> #
|  4> ! tpssh d3bj def2-tzvppd def2/jk grid4 nofinalgrid
|  5>
|  6> *xyz 0 1
|  7> C        0.099641    0.015172    0.000002
|  8> C        0.811159    1.219454    0.000004
|  9> C        2.205438    1.200000    0.000001
| 10> C        2.898295   -0.010923    0.000001
| 11> C        2.184022   -1.209573    0.000001
| 12> C        0.790170   -1.202154    0.000003
| 13> Se      -1.821201   -0.043502   -0.000002
| 14> H       -1.984560    1.419830   -0.000002
| 15> H        0.283594    2.168662    0.000009
| 16> H        2.749671    2.140448   -0.000003
| 17> H        3.983980   -0.020380    0.000003
| 18> H        2.711288   -2.159513   -0.000002
| 19> H        0.244496   -2.141840    0.000007
| 20> *
| 21>
| 22> %maxcore 5000
| 23>
| 24> %pal
| 25> nprocs = 24
| 26> end
| 27>
| 28>
| 29>                          ****END OF INPUT****

CARTESIAN COORDINATES (ANGSTROEM)
---------------------------------
  C      0.099641    0.015172    0.000002
  C      0.811159    1.219454    0.000004
  C      2.205438    1.200000    0.000001
  C      2.898295   -0.010923    0.000001
  C      2.184022   -1.209573    0.000001
  C      0.790170   -1.202154    0.000003
  Se    -1.821201   -0.043502   -0.000002
  H     -1.984560    1.419830   -0.000002
  H      0.283594    2.168662    0.000009
  H      2.749671    2.140448   -0.000003
  H      3.983980   -0.020380    0.000003
  H      2.711288   -2.159513   -0.000002
  H      0.244496   -2.141840    0.000007

 Total Charge           Charge          ....    0
 Multiplicity           Mult            ....    1
 Number of Electrons    NEL             ....   76
 Basis Dimension        Dim             ....  381

ORBITAL ENERGIES
----------------

  NO   OCC          E(Eh)            E(eV)
   0   2.0000    -453.608418    -12343.3126
   1   2.0000     -57.862479     -1574.5181
   2   2.0000     -51.886284     -1411.8976
   3   2.0000     -51.884948     -1411.8612
   4   2.0000     -51.882459     -1411.7935
   5   2.0000     -10.156288      -276.3666
   6   2.0000     -10.126694      -275.5613
   7   2.0000     -10.126116      -275.5456
   8   2.0000     -10.125220      -275.5212
   9   2.0000     -10.125043      -275.5164
  10   2.0000     -10.120468      -275.3919
  11   2.0000      -7.748734      -210.8538
  12   2.0000      -5.687486      -154.7644
  13   2.0000      -5.683118      -154.6455
  14   2.0000      -5.675076      -154.4267
  15   2.0000      -2.050580       -55.7991
  16   2.0000      -2.050308       -55.7917
  17   2.0000      -2.043465       -55.6055
  18   2.0000      -2.040082       -55.5134
  19   2.0000      -2.038996       -55.4839
  20   2.0000      -0.845243       -23.0002
  21   2.0000      -0.753401       -20.5011
  22   2.0000      -0.735827       -20.0229
  23   2.0000      -0.673789       -18.3347
  24   2.0000      -0.596980       -16.2447
  25   2.0000      -0.576451       -15.6860
  26   2.0000      -0.503335       -13.6964
  27   2.0000      -0.448904       -12.2153
  28   2.0000      -0.441781       -12.0215
  29   2.0000      -0.414230       -11.2718
  30   2.0000      -0.398095       -10.8327
  31   2.0000      -0.368967       -10.0401
  32   2.0000      -0.359433        -9.7807
  33   2.0000      -0.337636        -9.1875
  34   2.0000      -0.313339        -8.5264
  35   2.0000      -0.281225        -7.6525
  36   2.0000      -0.253637        -6.9018
  37   2.0000      -0.210143        -5.7183
  38   0.0000      -0.033195        -0.9033
  39   0.0000      -0.031017        -0.8440
  40   0.0000      -0.026303        -0.7157
  41   0.0000      -0.001495        -0.0407
  42   0.0000       0.013555         0.3689

MULLIKEN ATOMIC CHARGES
-----------------------
   0 C :    0.184251
   1 C :    0.163004
   2 C :   -0.140967
   3 C :   -0.128920
   4 C :   -0.074126
   5 C :   -0.068562
   6 Se:   -0.209117
   7 H :    0.039677
   8 H :    0.014288
   9 H :    0.066016
  10 H :    0.064119
  11 H :    0.063260
  12 H :    0.027078
Sum of atomic charges:    0.0000000

LOEWDIN ATOMIC CHARGES
----------------------
   0 C :   -0.567066
   1 C :   -0.042829
   2 C :    0.010453
   3 C :    0.006664
   4 C :    0.009942
   5 C :   -0.054923
   6 Se:    0.916560
   7 H :   -0.253798
   8 H :   -0.012854
   9 H :   -0.000117
  10 H :   -0.004297
  11 H :   -0.000038
  12 H :   -0.007698

  Mayer bond orders larger than 0.100000
B(  0-C ,  1-C ) :   1.0833 B(  0-C ,  5-C ) :   1.1922 B(  0-C ,  6-Se) :   1.0252
B(  0-C , 12-H ) :  -0.1090 B(  1-C ,  2-C ) :   1.2362 B(  1-C ,  8-H ) :   1.0472
B(  2-C ,  3-C ) :   1.2237 B(  2-C ,  9-H ) :   1.0521 B(  3-C ,  4-C ) :   1.2161
B(  3-C , 10-H ) :   1.0599 B(  4-C ,  5-C ) :   1.2361 B(  4-C , 11-H ) :   1.0582
B(  5-C , 12-H ) :   1.0606 B(  6-Se,  7-H ) :   0.9972

Dispersion correction           -0.017073201
FINAL SINGLE POINT ENERGY     -2633.851486834829

DIPOLE MOMENT
-------------
                                X             Y             Z
Electronic contribution:    -25.06400      -1.51417      -0.00003
Nuclear contribution   :     25.40592       1.71219       0.00003
                        -----------------------------------------
Total Dipole Moment    :      0.34192       0.19802       0.00000
                        -----------------------------------------
Magnitude (a.u.)       :      0.39512
Magnitude (Debye)      :      1.00432

Rotational constants in cm-1:     0.185431     0.032154     0.027403
Rotational constants in MHz :  5559.086830   963.964760   821.511792

                             ****ORCA TERMINATED NORMALLY****
TOTAL RUN TIME: 0 days 0 hours 0 minutes 29 seconds 801 msec
