                         Program Version 4.2.0 -  RELEASE  -
|  1> #
|  2> # MOR27_pr07 TPSSh-D3BJ/Def2-TZVPPD
|  3> #
|  4> ! tpssh d3bj def2-tzvppd def2/jk grid4 nofinalgrid
|  5>
|  6> *xyz 0 1
|  7> W        0.000153   -0.023654    0.145460
|  8> C       -0.000249    1.935753    0.684175
|  9> O       -0.000602    3.038332    1.069126
| 10> C        0.000042    0.319115   -1.817511
| 11> O        0.000023    0.516387   -2.971186
| 12> C        0.000186   -2.057627    0.000209
| 13> O        0.000001   -3.223688    0.015338
| 14> H       -0.422672   -0.342863    1.975704
| 15> H        0.423087   -0.343070    1.976292
| 16> P        2.499044    0.051189    0.053466
| 17> C        3.398497   -0.579400    1.568536
| 18> H        4.468576   -0.564735    1.332934
| 19> C        3.357030   -0.829661   -1.379272
| 20> H        3.371948   -0.051400   -2.154068
| 21> C        3.157630    1.804169   -0.095931
| 22> H        2.704128    2.295578    0.773940
| 23> C       -3.158190    1.803853   -0.098051
| 24> P       -2.499342    0.051185    0.053494
| 25> H       -4.468329   -0.563916    1.334439
| 26> H       -2.705915    2.296277    0.771888
| 27> C       -3.357947   -0.831337   -1.377937
| 28> H       -3.374541   -0.053484   -2.153122
| 29> C        4.805704   -1.269244   -1.108536
| 30> H        5.254950   -1.620204   -2.045252
| 31> H        4.835898   -2.103732   -0.400453
| 32> H        5.434431   -0.467933   -0.716341
| 33> C        2.560788   -2.016752   -1.935473
| 34> H        3.061937   -2.400142   -2.832615
| 35> H        1.542966   -1.732188   -2.204810
| 36> H        2.502084   -2.833493   -1.209948
| 37> C        4.680481    1.979802   -0.012340
| 38> H        4.916239    3.046506    0.083978
| 39> H        5.169829    1.620688   -0.922848
| 40> H        5.123446    1.463622    0.844533
| 41> C        2.617881    2.501599   -1.352306
| 42> H        2.906367    3.558914   -1.336615
| 43> H        1.529775    2.443192   -1.410983
| 44> H        3.032951    2.058398   -2.264167
| 45> C        3.156179    0.325190    2.783070
| 46> H        3.624905   -0.113517    3.671755
| 47> H        2.084721    0.431553    2.987984
| 48> H        3.570907    1.327076    2.642068
| 49> C        2.983676   -2.024266    1.875196
| 50> H        3.139448   -2.690345    1.021876
| 51> H        1.922767   -2.073885    2.140278
| 52> H        3.565975   -2.409562    2.720613
| 53> C       -4.681242    1.978525   -0.016373
| 54> H       -5.169268    1.617830   -0.926977
| 55> H       -4.917927    3.045167    0.078302
| 56> H       -5.124772    1.463082    0.840662
| 57> C       -2.617453    2.500423   -1.354472
| 58> H       -3.030239    2.055355   -2.266464
| 59> C       -2.982294   -2.021525    1.878658
| 60> H       -1.529170    2.443643   -1.411239
| 61> H       -2.907637    3.557302   -1.340680
| 62> C       -3.156106    0.329464    2.782654
| 63> H       -1.921474   -2.069894    2.144316
| 64> H       -3.564665   -2.406148    2.724324
| 65> H       -3.137027   -2.688908    1.026165
| 66> C       -3.398186   -0.577432    1.569777
| 67> H       -3.622276   -0.109074    3.672772
| 68> H       -3.573608    1.330095    2.640827
| 69> H       -2.084555    0.438855    2.985621
| 70> C       -4.805869   -1.272290   -1.105425
| 71> H       -5.255612   -1.624537   -2.041419
| 72> H       -5.435110   -0.471325   -0.713333
| 73> H       -4.834472   -2.106207   -0.396602
| 74> C       -2.561058   -2.017888   -1.934324
| 75> H       -2.500954   -2.834229   -1.208460
| 76> H       -1.543733   -1.732464   -2.204653
| 77> H       -3.062606   -2.402180   -2.830854
| 78> *
| 79>
| 80> %maxcore 5000
| 81>
| 82> %pal
| 83> nprocs = 24
| 84> end
| 85>
| 86>
| 87>                          ****END OF INPUT****

CARTESIAN COORDINATES (ANGSTROEM)
---------------------------------
  W      0.000153   -0.023654    0.145460
  C     -0.000249    1.935753    0.684175
  O     -0.000602    3.038332    1.069126
  C      0.000042    0.319115   -1.817511
  O      0.000023    0.516387   -2.971186
  C      0.000186   -2.057627    0.000209
  O      0.000001   -3.223688    0.015338
  H     -0.422672   -0.342863    1.975704
  H      0.423087   -0.343070    1.976292
  P      2.499044    0.051189    0.053466
  C      3.398497   -0.579400    1.568536
  H      4.468576   -0.564735    1.332934
  C      3.357030   -0.829661   -1.379272
  H      3.371948   -0.051400   -2.154068
  C      3.157630    1.804169   -0.095931
  H      2.704128    2.295578    0.773940
  C     -3.158190    1.803853   -0.098051
  P     -2.499342    0.051185    0.053494
  H     -4.468329   -0.563916    1.334439
  H     -2.705915    2.296277    0.771888
  C     -3.357947   -0.831337   -1.377937
  H     -3.374541   -0.053484   -2.153122
  C      4.805704   -1.269244   -1.108536
  H      5.254950   -1.620204   -2.045252
  H      4.835898   -2.103732   -0.400453
  H      5.434431   -0.467933   -0.716341
  C      2.560788   -2.016752   -1.935473
  H      3.061937   -2.400142   -2.832615
  H      1.542966   -1.732188   -2.204810
  H      2.502084   -2.833493   -1.209948
  C      4.680481    1.979802   -0.012340
  H      4.916239    3.046506    0.083978
  H      5.169829    1.620688   -0.922848
  H      5.123446    1.463622    0.844533
  C      2.617881    2.501599   -1.352306
  H      2.906367    3.558914   -1.336615
  H      1.529775    2.443192   -1.410983
  H      3.032951    2.058398   -2.264167
  C      3.156179    0.325190    2.783070
  H      3.624905   -0.113517    3.671755
  H      2.084721    0.431553    2.987984
  H      3.570907    1.327076    2.642068
  C      2.983676   -2.024266    1.875196
  H      3.139448   -2.690345    1.021876
  H      1.922767   -2.073885    2.140278
  H      3.565975   -2.409562    2.720613
  C     -4.681242    1.978525   -0.016373
  H     -5.169268    1.617830   -0.926977
  H     -4.917927    3.045167    0.078302
  H     -5.124772    1.463082    0.840662
  C     -2.617453    2.500423   -1.354472
  H     -3.030239    2.055355   -2.266464
  C     -2.982294   -2.021525    1.878658
  H     -1.529170    2.443643   -1.411239
  H     -2.907637    3.557302   -1.340680
  C     -3.156106    0.329464    2.782654
  H     -1.921474   -2.069894    2.144316
  H     -3.564665   -2.406148    2.724324
  H     -3.137027   -2.688908    1.026165
  C     -3.398186   -0.577432    1.569777
  H     -3.622276   -0.109074    3.672772
  H     -3.573608    1.330095    2.640827
  H     -2.084555    0.438855    2.985621
  C     -4.805869   -1.272290   -1.105425
  H     -5.255612   -1.624537   -2.041419
  H     -5.435110   -0.471325   -0.713333
  H     -4.834472   -2.106207   -0.396602
  C     -2.561058   -2.017888   -1.934324
  H     -2.500954   -2.834229   -1.208460
  H     -1.543733   -1.732464   -2.204653
  H     -3.062606   -2.402180   -2.830854

 Total Charge           Charge          ....    0
 Multiplicity           Mult            ....    1
 Number of Electrons    NEL             ....  238
 Basis Dimension        Dim             .... 1800

ORBITAL ENERGIES
----------------

  NO   OCC          E(Eh)            E(eV)
   0   2.0000     -76.933857     -2093.4767
   1   2.0000     -76.933834     -2093.4761
   2   2.0000     -19.092468      -519.5325
   3   2.0000     -19.090526      -519.4796
   4   2.0000     -19.080328      -519.2021
   5   2.0000     -10.185132      -277.1515
   6   2.0000     -10.184219      -277.1267
   7   2.0000     -10.178440      -276.9694
   8   2.0000     -10.126455      -275.5549
   9   2.0000     -10.126439      -275.5544
  10   2.0000     -10.125925      -275.5404
  11   2.0000     -10.125898      -275.5397
  12   2.0000     -10.124505      -275.5018
  13   2.0000     -10.124493      -275.5015
  14   2.0000     -10.112200      -275.1670
  15   2.0000     -10.112199      -275.1669
  16   2.0000     -10.111674      -275.1526
  17   2.0000     -10.111658      -275.1522
  18   2.0000     -10.110628      -275.1242
  19   2.0000     -10.110613      -275.1238
  20   2.0000     -10.109416      -275.0912
  21   2.0000     -10.109397      -275.0907
  22   2.0000     -10.102519      -274.9035
  23   2.0000     -10.102518      -274.9035
  24   2.0000     -10.099220      -274.8138
  25   2.0000     -10.099213      -274.8136
  26   2.0000      -6.487114      -176.5234
  27   2.0000      -6.487092      -176.5228
  28   2.0000      -4.636427      -126.1636
  29   2.0000      -4.636416      -126.1633
  30   2.0000      -4.636405      -126.1630
  31   2.0000      -4.636394      -126.1627
  32   2.0000      -4.633295      -126.0784
  33   2.0000      -4.633273      -126.0778
  34   2.0000      -2.859742       -77.8175
  35   2.0000      -1.525482       -41.5105
  36   2.0000      -1.523268       -41.4502
  37   2.0000      -1.515354       -41.2349
  38   2.0000      -1.064187       -28.9580
  39   2.0000      -1.063163       -28.9301
  40   2.0000      -1.052876       -28.6502
  41   2.0000      -0.797415       -21.6988
  42   2.0000      -0.796985       -21.6871
  43   2.0000      -0.766733       -20.8639
  44   2.0000      -0.766688       -20.8626
  45   2.0000      -0.763862       -20.7857
  46   2.0000      -0.763831       -20.7849
  47   2.0000      -0.674437       -18.3524
  48   2.0000      -0.674266       -18.3477
  49   2.0000      -0.671955       -18.2848
  50   2.0000      -0.671599       -18.2751
  51   2.0000      -0.664833       -18.0910
  52   2.0000      -0.664584       -18.0842
  53   2.0000      -0.635079       -17.2814
  54   2.0000      -0.632801       -17.2194
  55   2.0000      -0.571363       -15.5476
  56   2.0000      -0.571057       -15.5392
  57   2.0000      -0.570013       -15.5108
  58   2.0000      -0.569379       -15.4936
  59   2.0000      -0.545753       -14.8507
  60   2.0000      -0.514319       -13.9953
  61   2.0000      -0.510026       -13.8785
  62   2.0000      -0.501720       -13.6525
  63   2.0000      -0.501074       -13.6349
  64   2.0000      -0.481656       -13.1065
  65   2.0000      -0.459021       -12.4906
  66   2.0000      -0.456957       -12.4344
  67   2.0000      -0.455200       -12.3866
  68   2.0000      -0.449200       -12.2234
  69   2.0000      -0.442669       -12.0456
  70   2.0000      -0.442561       -12.0427
  71   2.0000      -0.430808       -11.7229
  72   2.0000      -0.426031       -11.5929
  73   2.0000      -0.423579       -11.5262
  74   2.0000      -0.418803       -11.3962
  75   2.0000      -0.417061       -11.3488
  76   2.0000      -0.406307       -11.0562
  77   2.0000      -0.404894       -11.0177
  78   2.0000      -0.404207       -10.9990
  79   2.0000      -0.403318       -10.9748
  80   2.0000      -0.400475       -10.8975
  81   2.0000      -0.399624       -10.8743
  82   2.0000      -0.395855       -10.7718
  83   2.0000      -0.390908       -10.6371
  84   2.0000      -0.389101       -10.5880
  85   2.0000      -0.387503       -10.5445
  86   2.0000      -0.385714       -10.4958
  87   2.0000      -0.382475       -10.4077
  88   2.0000      -0.381858       -10.3909
  89   2.0000      -0.378984       -10.3127
  90   2.0000      -0.378273       -10.2933
  91   2.0000      -0.375373       -10.2144
  92   2.0000      -0.372256       -10.1296
  93   2.0000      -0.370138       -10.0720
  94   2.0000      -0.369778       -10.0622
  95   2.0000      -0.366977        -9.9859
  96   2.0000      -0.366250        -9.9662
  97   2.0000      -0.351314        -9.5597
  98   2.0000      -0.339936        -9.2501
  99   2.0000      -0.339870        -9.2483
 100   2.0000      -0.339626        -9.2417
 101   2.0000      -0.338218        -9.2034
 102   2.0000      -0.335268        -9.1231
 103   2.0000      -0.333523        -9.0756
 104   2.0000      -0.330605        -8.9962
 105   2.0000      -0.329332        -8.9616
 106   2.0000      -0.325533        -8.8582
 107   2.0000      -0.325083        -8.8460
 108   2.0000      -0.324016        -8.8169
 109   2.0000      -0.323666        -8.8074
 110   2.0000      -0.285647        -7.7728
 111   2.0000      -0.285281        -7.7629
 112   2.0000      -0.283000        -7.7008
 113   2.0000      -0.282725        -7.6933
 114   2.0000      -0.280735        -7.6392
 115   2.0000      -0.243649        -6.6300
 116   2.0000      -0.188516        -5.1298
 117   2.0000      -0.182336        -4.9616
 118   2.0000      -0.177591        -4.8325
 119   0.0000      -0.044737        -1.2174
 120   0.0000      -0.039015        -1.0617
 121   0.0000      -0.014336        -0.3901
 122   0.0000      -0.010565        -0.2875
 123   0.0000      -0.004920        -0.1339

MULLIKEN ATOMIC CHARGES
-----------------------
   0 W :   -4.814861
   1 C :    1.359170
   2 O :   -0.534952
   3 C :    1.052004
   4 O :   -0.601114
   5 C :    1.653436
   6 O :   -0.568518
   7 H :    0.163806
   8 H :    0.161196
   9 P :    0.197761
  10 C :    0.480120
  11 H :    0.268583
  12 C :    1.126151
  13 H :    0.053065
  14 C :    0.456954
  15 H :    0.152814
  16 C :    0.459332
  17 P :    0.227796
  18 H :    0.273198
  19 H :    0.155441
  20 C :    1.125043
  21 H :    0.054295
  22 C :   -0.559378
  23 H :    0.096467
  24 H :    0.111333
  25 H :    0.096429
  26 C :   -0.534515
  27 H :    0.076695
  28 H :    0.084199
  29 H :    0.111918
  30 C :   -0.674584
  31 H :    0.065265
  32 H :    0.121908
  33 H :    0.136431
  34 C :   -0.464429
  35 H :    0.038512
  36 H :    0.063829
  37 H :    0.126750
  38 C :   -0.525021
  39 H :    0.092319
  40 H :    0.075927
  41 H :    0.113208
  42 C :   -0.592673
  43 H :    0.093752
  44 H :    0.067973
  45 H :    0.098855
  46 C :   -0.679817
  47 H :    0.121832
  48 H :    0.065668
  49 H :    0.135933
  50 C :   -0.460161
  51 H :    0.126787
  52 C :   -0.591820
  53 H :    0.062614
  54 H :    0.038264
  55 C :   -0.524417
  56 H :    0.065553
  57 H :    0.099097
  58 H :    0.094044
  59 C :    0.468202
  60 H :    0.092376
  61 H :    0.112978
  62 H :    0.075501
  63 C :   -0.565383
  64 H :    0.096135
  65 H :    0.096061
  66 H :    0.111940
  67 C :   -0.538180
  68 H :    0.112526
  69 H :    0.085386
  70 H :    0.076990
Sum of atomic charges:    0.0000000

LOEWDIN ATOMIC CHARGES
----------------------
   0 W :    0.281032
   1 C :   -0.302446
   2 O :    0.060430
   3 C :   -0.348538
   4 O :    0.050285
   5 C :   -0.303631
   6 O :    0.055004
   7 H :    0.013199
   8 H :    0.013543
   9 P :    1.060458
  10 C :   -0.371491
  11 H :   -0.028065
  12 C :   -0.324641
  13 H :   -0.017900
  14 C :   -0.357496
  15 H :   -0.028835
  16 C :   -0.357515
  17 P :    1.060690
  18 H :   -0.028084
  19 H :   -0.028761
  20 C :   -0.324650
  21 H :   -0.017902
  22 C :    0.122304
  23 H :   -0.005719
  24 H :   -0.016880
  25 H :   -0.038957
  26 C :    0.111760
  27 H :   -0.005729
  28 H :   -0.050342
  29 H :   -0.024600
  30 C :    0.122724
  31 H :   -0.006082
  32 H :   -0.018867
  33 H :   -0.028067
  34 C :    0.116573
  35 H :   -0.004011
  36 H :   -0.052447
  37 H :   -0.015995
  38 C :    0.119170
  39 H :   -0.007048
  40 H :   -0.032587
  41 H :   -0.024318
  42 C :    0.117275
  43 H :   -0.029734
  44 H :   -0.033424
  45 H :   -0.006599
  46 C :    0.122697
  47 H :   -0.018803
  48 H :   -0.006092
  49 H :   -0.028055
  50 C :    0.116587
  51 H :   -0.015993
  52 C :    0.117212
  53 H :   -0.052452
  54 H :   -0.004026
  55 C :    0.119149
  56 H :   -0.033460
  57 H :   -0.006609
  58 H :   -0.029698
  59 C :   -0.371511
  60 H :   -0.007065
  61 H :   -0.024286
  62 H :   -0.032518
  63 C :    0.122235
  64 H :   -0.005712
  65 H :   -0.038934
  66 H :   -0.016878
  67 C :    0.111740
  68 H :   -0.024592
  69 H :   -0.050284
  70 H :   -0.005739

  Mayer bond orders larger than 0.100000
B(  0-W ,  1-C ) :   1.4524 B(  0-W ,  2-O ) :   0.1470 B(  0-W ,  3-C ) :   1.6562
B(  0-W ,  5-C ) :   1.2650 B(  0-W ,  6-O ) :   0.1222 B(  0-W ,  7-H ) :   0.5036
B(  0-W ,  8-H ) :   0.5132 B(  0-W ,  9-P ) :  -0.2696 B(  0-W , 10-C ) :   0.2750
B(  0-W , 17-P ) :  -0.2346 B(  0-W , 26-C ) :   0.1064 B(  0-W , 34-C ) :   0.1112
B(  0-W , 50-C ) :   0.1082 B(  0-W , 59-C ) :   0.2607 B(  0-W , 67-C ) :   0.1051
B(  1-C ,  2-O ) :   1.5605 B(  1-C ,  3-C ) :  -0.2288 B(  1-C ,  5-C ) :   0.1286
B(  3-C ,  4-O ) :   1.4664 B(  3-C ,  5-C ) :  -0.1207 B(  3-C ,  9-P ) :   0.2573
B(  3-C , 17-P ) :   0.2347 B(  5-C ,  6-O ) :   1.5708 B(  7-H ,  8-H ) :   0.8537
B(  7-H , 17-P ) :  -0.1437 B(  7-H , 20-C ) :  -0.1073 B(  8-H ,  9-P ) :  -0.1470
B(  8-H , 12-C ) :  -0.1067 B(  9-P , 10-C ) :   0.6919 B(  9-P , 12-C ) :   0.6422
B(  9-P , 14-C ) :   0.8359 B(  9-P , 17-P ) :  -0.3167 B(  9-P , 20-C ) :   0.1154
B(  9-P , 26-C ) :   0.2408 B(  9-P , 30-C ) :   0.2087 B(  9-P , 34-C ) :   0.1117
B(  9-P , 38-C ) :   0.1771 B(  9-P , 42-C ) :   0.1070 B( 10-C , 11-H ) :   0.7324
B( 10-C , 12-C ) :   0.1790 B( 10-C , 14-C ) :   0.3876 B( 10-C , 38-C ) :   0.7515
B( 10-C , 42-C ) :   0.7759 B( 12-C , 13-H ) :   0.7542 B( 12-C , 14-C ) :   0.3130
B( 12-C , 17-P ) :   0.1163 B( 12-C , 22-C ) :   0.5650 B( 12-C , 26-C ) :   0.7087
B( 14-C , 15-H ) :   0.8028 B( 14-C , 30-C ) :   0.6220 B( 14-C , 34-C ) :   0.7461
B( 16-C , 17-P ) :   0.8258 B( 16-C , 19-H ) :   0.8007 B( 16-C , 20-C ) :   0.3158
B( 16-C , 46-C ) :   0.6221 B( 16-C , 50-C ) :   0.7464 B( 16-C , 59-C ) :   0.3888
B( 17-P , 20-C ) :   0.6468 B( 17-P , 46-C ) :   0.2060 B( 17-P , 50-C ) :   0.1132
B( 17-P , 52-C ) :   0.1035 B( 17-P , 55-C ) :   0.1754 B( 17-P , 59-C ) :   0.7071
B( 17-P , 67-C ) :   0.2435 B( 18-H , 59-C ) :   0.7310 B( 20-C , 21-H ) :   0.7556
B( 20-C , 59-C ) :   0.1794 B( 20-C , 63-C ) :   0.5612 B( 20-C , 67-C ) :   0.7066
B( 22-C , 23-H ) :   0.9521 B( 22-C , 24-H ) :   1.0284 B( 22-C , 25-H ) :   1.0516
B( 22-C , 26-C ) :   0.2655 B( 26-C , 27-H ) :   0.9061 B( 26-C , 28-H ) :   1.1065
B( 26-C , 29-H ) :   0.9524 B( 30-C , 31-H ) :   0.9907 B( 30-C , 32-H ) :   0.9552
B( 30-C , 33-H ) :   0.9395 B( 30-C , 34-C ) :   0.2063 B( 34-C , 35-H ) :   0.8952
B( 34-C , 36-H ) :   1.0615 B( 34-C , 37-H ) :   0.9332 B( 38-C , 39-H ) :   0.9742
B( 38-C , 40-H ) :   0.9796 B( 38-C , 41-H ) :   0.9369 B( 38-C , 42-C ) :   0.1483
B( 42-C , 43-H ) :   0.9778 B( 42-C , 44-H ) :   0.9809 B( 42-C , 45-H ) :   0.9488
B( 46-C , 47-H ) :   0.9552 B( 46-C , 48-H ) :   0.9910 B( 46-C , 49-H ) :   0.9401
B( 46-C , 50-C ) :   0.2066 B( 50-C , 51-H ) :   0.9317 B( 50-C , 53-H ) :   1.0621
B( 50-C , 54-H ) :   0.8950 B( 52-C , 55-C ) :   0.1499 B( 52-C , 56-H ) :   0.9821
B( 52-C , 57-H ) :   0.9486 B( 52-C , 58-H ) :   0.9779 B( 52-C , 59-C ) :   0.7812
B( 55-C , 59-C ) :   0.7520 B( 55-C , 60-H ) :   0.9749 B( 55-C , 61-H ) :   0.9367
B( 55-C , 62-H ) :   0.9807 B( 63-C , 64-H ) :   0.9531 B( 63-C , 65-H ) :   1.0528
B( 63-C , 66-H ) :   1.0273 B( 63-C , 67-C ) :   0.2658 B( 67-C , 68-H ) :   0.9517
B( 67-C , 69-H ) :   1.1068 B( 67-C , 70-H ) :   0.9066

Dispersion correction           -0.142778431
FINAL SINGLE POINT ENERGY     -1803.024330296131

DIPOLE MOMENT
-------------
                                X             Y             Z
Electronic contribution:      0.02007      -1.49203      17.17267
Nuclear contribution   :     -0.02072       1.50197     -16.46211
                        -----------------------------------------
Total Dipole Moment    :     -0.00065       0.00994       0.71057
                        -----------------------------------------
Magnitude (a.u.)       :      0.71064
Magnitude (Debye)      :      1.80629

Rotational constants in cm-1:     0.008070     0.003719     0.003518
Rotational constants in MHz :   241.945038   111.491092   105.477311

                             ****ORCA TERMINATED NORMALLY****
TOTAL RUN TIME: 0 days 1 hours 33 minutes 12 seconds 630 msec
