                         Program Version 4.2.0 -  RELEASE  -
|  1> #
|  2> # MOR26_pr05 TPSSh-D3BJ/Def2-TZVPPD
|  3> #
|  4> ! tpssh d3bj def2-tzvppd def2/jk grid4 nofinalgrid
|  5>
|  6> *xyz 0 1
|  7> Mn       0.144445   -0.000220    0.050119
|  8> O       -2.125838   -0.018069    2.024989
|  9> C       -1.261969   -0.011297    1.274333
| 10> C        1.407998   -0.004194    1.401883
| 11> O        2.195378   -0.006691    2.240943
| 12> C        1.458789    0.011243   -1.252981
| 13> O        2.260044    0.018413   -2.075843
| 14> C       -0.034165    1.837211   -0.109707
| 15> O       -0.163636    2.972926   -0.231026
| 16> C       -0.023402   -1.836685   -0.130415
| 17> O       -0.146189   -2.971707   -0.264701
| 18> C       -1.328355    0.004078   -1.485929
| 19> O       -2.518815    0.004844   -1.307728
| 20> H       -0.932058    0.005632   -2.529143
| 21> *
| 22>
| 23> %maxcore 5000
| 24>
| 25> %pal
| 26> nprocs = 24
| 27> end
| 28>
| 29>
| 30>                          ****END OF INPUT****

CARTESIAN COORDINATES (ANGSTROEM)
---------------------------------
  Mn     0.144445   -0.000220    0.050119
  O     -2.125838   -0.018069    2.024989
  C     -1.261969   -0.011297    1.274333
  C      1.407998   -0.004194    1.401883
  O      2.195378   -0.006691    2.240943
  C      1.458789    0.011243   -1.252981
  O      2.260044    0.018413   -2.075843
  C     -0.034165    1.837211   -0.109707
  O     -0.163636    2.972926   -0.231026
  C     -0.023402   -1.836685   -0.130415
  O     -0.146189   -2.971707   -0.264701
  C     -1.328355    0.004078   -1.485929
  O     -2.518815    0.004844   -1.307728
  H     -0.932058    0.005632   -2.529143

 Total Charge           Charge          ....    0
 Multiplicity           Mult            ....    1
 Number of Electrons    NEL             ....  110
 Basis Dimension        Dim             ....  546

ORBITAL ENERGIES
----------------

  NO   OCC          E(Eh)            E(eV)
   0   2.0000    -235.306603     -6403.0182
   1   2.0000     -27.232641      -741.0378
   2   2.0000     -23.286821      -633.6666
   3   2.0000     -23.285794      -633.6387
   4   2.0000     -23.281090      -633.5107
   5   2.0000     -19.163946      -521.4775
   6   2.0000     -19.161347      -521.4068
   7   2.0000     -19.156576      -521.2769
   8   2.0000     -19.156559      -521.2765
   9   2.0000     -19.151967      -521.1515
  10   2.0000     -19.073785      -519.0241
  11   2.0000     -10.258624      -279.1513
  12   2.0000     -10.256898      -279.1044
  13   2.0000     -10.254715      -279.0450
  14   2.0000     -10.254700      -279.0446
  15   2.0000     -10.250291      -278.9246
  16   2.0000     -10.213243      -277.9165
  17   2.0000      -3.158049       -85.9349
  18   2.0000      -2.025663       -55.1211
  19   2.0000      -2.024111       -55.0789
  20   2.0000      -2.012352       -54.7589
  21   2.0000      -1.140848       -31.0440
  22   2.0000      -1.139176       -30.9986
  23   2.0000      -1.133536       -30.8451
  24   2.0000      -1.133500       -30.8441
  25   2.0000      -1.128710       -30.7138
  26   2.0000      -1.041231       -28.3333
  27   2.0000      -0.626217       -17.0402
  28   2.0000      -0.584157       -15.8957
  29   2.0000      -0.573247       -15.5988
  30   2.0000      -0.570676       -15.5289
  31   2.0000      -0.566027       -15.4024
  32   2.0000      -0.565798       -15.3961
  33   2.0000      -0.501799       -13.6547
  34   2.0000      -0.484109       -13.1733
  35   2.0000      -0.477557       -12.9950
  36   2.0000      -0.476514       -12.9666
  37   2.0000      -0.476428       -12.9643
  38   2.0000      -0.473870       -12.8947
  39   2.0000      -0.471722       -12.8362
  40   2.0000      -0.460564       -12.5326
  41   2.0000      -0.456893       -12.4327
  42   2.0000      -0.454399       -12.3648
  43   2.0000      -0.453210       -12.3325
  44   2.0000      -0.452672       -12.3178
  45   2.0000      -0.445863       -12.1326
  46   2.0000      -0.440536       -11.9876
  47   2.0000      -0.427076       -11.6213
  48   2.0000      -0.416710       -11.3393
  49   2.0000      -0.388939       -10.5836
  50   2.0000      -0.382671       -10.4130
  51   2.0000      -0.285315        -7.7638
  52   2.0000      -0.271387        -7.3848
  53   2.0000      -0.269303        -7.3281
  54   2.0000      -0.223803        -6.0900
  55   0.0000      -0.077350        -2.1048
  56   0.0000      -0.075837        -2.0636
  57   0.0000      -0.070784        -1.9261
  58   0.0000      -0.068773        -1.8714
  59   0.0000      -0.059609        -1.6220

MULLIKEN ATOMIC CHARGES
-----------------------
   0 Mn:   -0.287595
   1 O :   -0.263392
   2 C :    0.447953
   3 C :    0.483952
   4 O :   -0.328804
   5 C :    0.404541
   6 O :   -0.298519
   7 C :    0.255537
   8 O :   -0.298180
   9 C :    0.254411
  10 O :   -0.298384
  11 C :    0.370948
  12 O :   -0.491217
  13 H :    0.048748
Sum of atomic charges:    0.0000000

LOEWDIN ATOMIC CHARGES
----------------------
   0 Mn:   -0.386322
   1 O :    0.199456
   2 C :   -0.067892
   3 C :   -0.078495
   4 O :    0.160868
   5 C :   -0.090367
   6 O :    0.181686
   7 C :   -0.082407
   8 O :    0.177201
   9 C :   -0.082530
  10 O :    0.177112
  11 C :   -0.129377
  12 O :    0.033218
  13 H :   -0.012151

  Mayer bond orders larger than 0.100000
B(  0-Mn,  1-O ) :   0.1229 B(  0-Mn,  2-C ) :   1.0142 B(  0-Mn,  3-C ) :   1.1686
B(  0-Mn,  5-C ) :   1.0238 B(  0-Mn,  7-C ) :   1.0976 B(  0-Mn,  9-C ) :   1.0974
B(  0-Mn, 11-C ) :   0.7371 B(  0-Mn, 12-O ) :   0.2762 B(  1-O ,  2-C ) :   2.0330
B(  3-C ,  4-O ) :   2.0059 B(  5-C ,  6-O ) :   2.0057 B(  7-C ,  8-O ) :   2.0313
B(  9-C , 10-O ) :   2.0311 B( 11-C , 12-O ) :   1.6268 B( 11-C , 13-H ) :   1.0566

Dispersion correction           -0.022603924
FINAL SINGLE POINT ENERGY     -1832.019059356564

DIPOLE MOMENT
-------------
                                X             Y             Z
Electronic contribution:      2.28222      -0.00696       2.57705
Nuclear contribution   :     -1.52284       0.00619      -2.55446
                        -----------------------------------------
Total Dipole Moment    :      0.75938      -0.00077       0.02259
                        -----------------------------------------
Magnitude (a.u.)       :      0.75972
Magnitude (Debye)      :      1.93104

Rotational constants in cm-1:     0.023969     0.022043     0.021367
Rotational constants in MHz :   718.564967   660.846663   640.564054

                             ****ORCA TERMINATED NORMALLY****
TOTAL RUN TIME: 0 days 0 hours 2 minutes 41 seconds 450 msec
