                         Program Version 4.2.0 -  RELEASE  -
|  1> #
|  2> # MOR29_pr11 TPSSh-D3BJ/Def2-TZVPPD
|  3> #
|  4> ! tpssh d3bj def2-tzvppd def2/jk grid4 nofinalgrid
|  5>
|  6> *xyz 0 1
|  7> C       -1.039290   -2.639432    0.178033
|  8> C       -2.178017   -3.305635   -0.258724
|  9> C       -3.296391   -2.550827   -0.605540
| 10> C       -3.231094   -1.166811   -0.503382
| 11> H       -0.140242   -3.178187    0.457229
| 12> H       -2.180740   -4.388297   -0.324253
| 13> H       -4.206388   -3.031472   -0.950846
| 14> H       -4.092575   -0.563880   -0.765153
| 15> N       -0.970920   -1.306381    0.272680
| 16> C       -2.050199   -0.559703   -0.062217
| 17> C       -1.896627    0.903347    0.053727
| 18> N       -0.715899    1.344389    0.547476
| 19> C       -0.493208    2.660516    0.650101
| 20> C       -2.657172    3.172580   -0.229603
| 21> C       -1.435330    3.611046    0.276469
| 22> H        0.481431    2.944320    1.031789
| 23> H       -1.207232    4.666962    0.373432
| 24> C       -2.888209    1.807210   -0.342538
| 25> H       -3.826394    1.449184   -0.749672
| 26> H       -3.416704    3.882938   -0.540755
| 27> Pd       0.796966   -0.183618    0.920224
| 28> C        2.296006    1.038742    1.594093
| 29> H        1.829551    1.776866    2.255021
| 30> H        2.734263    1.506656    0.710942
| 31> H        3.050202    0.480142    2.149825
| 32> C        2.162541   -1.690695    1.159536
| 33> H        3.086547   -1.399047    0.660601
| 34> H        1.744149   -2.568037    0.656862
| 35> H        2.334771   -1.896294    2.218292
| 36> I        1.451603    0.093477   -1.772045
| 37> C        0.284011   -0.444486    2.913651
| 38> H       -0.123661   -1.453796    3.016265
| 39> H       -0.476481    0.304111    3.153737
| 40> H        1.159721   -0.321172    3.551993
| 41> *
| 42>
| 43> %maxcore 5000
| 44>
| 45> %pal
| 46> nprocs = 24
| 47> end
| 48>
| 49>
| 50>                          ****END OF INPUT****

CARTESIAN COORDINATES (ANGSTROEM)
---------------------------------
  C     -1.039290   -2.639432    0.178033
  C     -2.178017   -3.305635   -0.258724
  C     -3.296391   -2.550827   -0.605540
  C     -3.231094   -1.166811   -0.503382
  H     -0.140242   -3.178187    0.457229
  H     -2.180740   -4.388297   -0.324253
  H     -4.206388   -3.031472   -0.950846
  H     -4.092575   -0.563880   -0.765153
  N     -0.970920   -1.306381    0.272680
  C     -2.050199   -0.559703   -0.062217
  C     -1.896627    0.903347    0.053727
  N     -0.715899    1.344389    0.547476
  C     -0.493208    2.660516    0.650101
  C     -2.657172    3.172580   -0.229603
  C     -1.435330    3.611046    0.276469
  H      0.481431    2.944320    1.031789
  H     -1.207232    4.666962    0.373432
  C     -2.888209    1.807210   -0.342538
  H     -3.826394    1.449184   -0.749672
  H     -3.416704    3.882938   -0.540755
  Pd     0.796966   -0.183618    0.920224
  C      2.296006    1.038742    1.594093
  H      1.829551    1.776866    2.255021
  H      2.734263    1.506656    0.710942
  H      3.050202    0.480142    2.149825
  C      2.162541   -1.690695    1.159536
  H      3.086547   -1.399047    0.660601
  H      1.744149   -2.568037    0.656862
  H      2.334771   -1.896294    2.218292
  I      1.451603    0.093477   -1.772045
  C      0.284011   -0.444486    2.913651
  H     -0.123661   -1.453796    3.016265
  H     -0.476481    0.304111    3.153737
  H      1.159721   -0.321172    3.551993

 Total Charge           Charge          ....    0
 Multiplicity           Mult            ....    1
 Number of Electrons    NEL             ....  152
 Basis Dimension        Dim             ....  959

ORBITAL ENERGIES
----------------

  NO   OCC          E(Eh)            E(eV)
   0   2.0000     -14.305342      -389.2682
   1   2.0000     -14.304707      -389.2509
   2   2.0000     -10.196689      -277.4660
   3   2.0000     -10.195923      -277.4452
   4   2.0000     -10.181879      -277.0630
   5   2.0000     -10.180727      -277.0317
   6   2.0000     -10.165023      -276.6043
   7   2.0000     -10.164093      -276.5790
   8   2.0000     -10.160747      -276.4880
   9   2.0000     -10.160032      -276.4685
  10   2.0000     -10.155814      -276.3538
  11   2.0000     -10.154742      -276.3246
  12   2.0000     -10.097855      -274.7766
  13   2.0000     -10.094291      -274.6796
  14   2.0000     -10.092761      -274.6380
  15   2.0000      -6.669721      -181.4923
  16   2.0000      -4.702693      -127.9668
  17   2.0000      -4.697630      -127.8290
  18   2.0000      -4.697552      -127.8269
  19   2.0000      -3.446008       -93.7706
  20   2.0000      -2.137184       -58.1557
  21   2.0000      -2.133261       -58.0490
  22   2.0000      -2.133064       -58.0436
  23   2.0000      -1.776070       -48.3293
  24   2.0000      -1.774598       -48.2893
  25   2.0000      -1.774528       -48.2874
  26   2.0000      -1.770213       -48.1699
  27   2.0000      -1.770185       -48.1692
  28   2.0000      -0.976811       -26.5804
  29   2.0000      -0.952399       -25.9161
  30   2.0000      -0.823422       -22.4064
  31   2.0000      -0.815541       -22.1920
  32   2.0000      -0.810627       -22.0583
  33   2.0000      -0.757708       -20.6183
  34   2.0000      -0.673684       -18.3319
  35   2.0000      -0.664406       -18.0794
  36   2.0000      -0.660798       -17.9812
  37   2.0000      -0.637602       -17.3500
  38   2.0000      -0.636772       -17.3275
  39   2.0000      -0.628394       -17.0995
  40   2.0000      -0.620095       -16.8736
  41   2.0000      -0.579342       -15.7647
  42   2.0000      -0.559733       -15.2311
  43   2.0000      -0.520752       -14.1704
  44   2.0000      -0.516616       -14.0578
  45   2.0000      -0.499853       -13.6017
  46   2.0000      -0.480890       -13.0857
  47   2.0000      -0.462968       -12.5980
  48   2.0000      -0.449803       -12.2398
  49   2.0000      -0.446805       -12.1582
  50   2.0000      -0.437368       -11.9014
  51   2.0000      -0.429637       -11.6910
  52   2.0000      -0.415071       -11.2946
  53   2.0000      -0.400874       -10.9083
  54   2.0000      -0.394412       -10.7325
  55   2.0000      -0.393731       -10.7140
  56   2.0000      -0.388295       -10.5661
  57   2.0000      -0.380258       -10.3474
  58   2.0000      -0.358408        -9.7528
  59   2.0000      -0.355645        -9.6776
  60   2.0000      -0.351983        -9.5779
  61   2.0000      -0.350260        -9.5311
  62   2.0000      -0.340159        -9.2562
  63   2.0000      -0.326061        -8.8726
  64   2.0000      -0.316391        -8.6094
  65   2.0000      -0.313738        -8.5373
  66   2.0000      -0.312343        -8.4993
  67   2.0000      -0.266412        -7.2494
  68   2.0000      -0.265437        -7.2229
  69   2.0000      -0.262295        -7.1374
  70   2.0000      -0.259729        -7.0676
  71   2.0000      -0.256991        -6.9931
  72   2.0000      -0.251683        -6.8486
  73   2.0000      -0.201058        -5.4711
  74   2.0000      -0.183105        -4.9825
  75   2.0000      -0.182752        -4.9729
  76   0.0000      -0.107140        -2.9154
  77   0.0000      -0.079205        -2.1553
  78   0.0000      -0.068319        -1.8590
  79   0.0000      -0.039807        -1.0832
  80   0.0000      -0.031174        -0.8483

MULLIKEN ATOMIC CHARGES
-----------------------
   0 C :    0.149674
   1 C :   -0.324054
   2 C :   -0.028052
   3 C :   -0.267262
   4 H :    0.002051
   5 H :    0.029054
   6 H :    0.063709
   7 H :    0.019701
   8 N :    0.487245
   9 C :    0.650719
  10 C :    0.114251
  11 N :    0.612781
  12 C :    0.144549
  13 C :   -0.083450
  14 C :   -0.324075
  15 H :   -0.013802
  16 H :    0.029871
  17 C :   -0.316340
  18 H :    0.015779
  19 H :    0.060698
  20 Pd:   -0.890791
  21 C :   -0.274663
  22 H :    0.143497
  23 H :    0.112059
  24 H :    0.160997
  25 C :   -0.131335
  26 H :    0.149988
  27 H :    0.009104
  28 H :    0.149296
  29 I :   -0.545693
  30 C :   -0.206420
  31 H :    0.086637
  32 H :    0.045439
  33 H :    0.168837
Sum of atomic charges:    0.0000000

LOEWDIN ATOMIC CHARGES
----------------------
   0 C :   -0.017841
   1 C :    0.065054
   2 C :    0.054236
   3 C :    0.088498
   4 H :   -0.002000
   5 H :    0.006633
   6 H :    0.009480
   7 H :   -0.000348
   8 N :    0.023501
   9 C :   -0.176932
  10 C :   -0.183424
  11 N :    0.013754
  12 C :   -0.019763
  13 C :    0.054823
  14 C :    0.065578
  15 H :    0.001691
  16 H :    0.006834
  17 C :    0.088651
  18 H :   -0.000249
  19 H :    0.009475
  20 Pd:    0.686551
  21 C :    0.027255
  22 H :   -0.094918
  23 H :   -0.119480
  24 H :   -0.087646
  25 C :    0.020532
  26 H :   -0.103963
  27 H :   -0.110589
  28 H :   -0.087296
  29 I :   -0.019117
  30 C :    0.080475
  31 H :   -0.092967
  32 H :   -0.092558
  33 H :   -0.093932

  Mayer bond orders larger than 0.100000
B(  0-C ,  1-C ) :   1.0818 B(  0-C ,  4-H ) :   1.1111 B(  0-C ,  8-N ) :   1.5216
B(  0-C , 20-Pd) :  -0.1047 B(  1-C ,  2-C ) :   1.1214 B(  1-C ,  4-H ) :  -0.1077
B(  1-C ,  5-H ) :   1.1215 B(  1-C ,  8-N ) :  -0.1721 B(  1-C , 20-Pd) :   0.1275
B(  2-C ,  3-C ) :   1.1731 B(  2-C ,  6-H ) :   1.0568 B(  2-C ,  8-N ) :   0.1341
B(  3-C ,  7-H ) :   1.2046 B(  3-C ,  8-N ) :  -0.2623 B(  3-C ,  9-C ) :   0.6343
B(  3-C , 10-C ) :  -0.5099 B(  3-C , 20-Pd) :   0.1565 B(  8-N ,  9-C ) :   1.4244
B(  8-N , 10-C ) :   0.2215 B(  8-N , 20-Pd) :   0.3693 B(  9-C , 10-C ) :   1.1940
B(  9-C , 11-N ) :   0.2753 B(  9-C , 17-C ) :  -0.6351 B(  9-C , 20-Pd) :  -0.1704
B(  9-C , 29-I ) :  -0.1006 B( 10-C , 11-N ) :   1.4433 B( 10-C , 17-C ) :   0.7635
B( 10-C , 20-Pd) :   0.1183 B( 10-C , 29-I ) :   0.1059 B( 11-N , 12-C ) :   1.4875
B( 11-N , 13-C ) :   0.1191 B( 11-N , 14-C ) :  -0.2152 B( 11-N , 17-C ) :  -0.3053
B( 11-N , 20-Pd) :   0.2717 B( 12-C , 14-C ) :   1.0614 B( 12-C , 15-H ) :   1.1313
B( 13-C , 14-C ) :   1.1625 B( 13-C , 17-C ) :   1.1792 B( 13-C , 19-H ) :   1.0609
B( 14-C , 16-H ) :   1.1152 B( 14-C , 20-Pd) :   0.1062 B( 17-C , 18-H ) :   1.2013
B( 17-C , 20-Pd) :   0.1831 B( 20-Pd, 21-C ) :   0.7653 B( 20-Pd, 23-H ) :   0.1365
B( 20-Pd, 25-C ) :   0.7380 B( 20-Pd, 27-H ) :   0.1418 B( 20-Pd, 29-I ) :   0.7975
B( 20-Pd, 30-C ) :   0.6434 B( 20-Pd, 31-H ) :   0.1271 B( 20-Pd, 32-H ) :   0.1904
B( 21-C , 22-H ) :   1.0152 B( 21-C , 23-H ) :   0.9850 B( 21-C , 24-H ) :   0.9941
B( 21-C , 29-I ) :  -0.1299 B( 23-H , 29-I ) :   0.1359 B( 25-C , 26-H ) :   0.9787
B( 25-C , 27-H ) :   1.0878 B( 25-C , 28-H ) :   0.9830 B( 25-C , 29-I ) :  -0.1061
B( 29-I , 30-C ) :   0.1500 B( 30-C , 31-H ) :   1.0096 B( 30-C , 32-H ) :   1.0333
B( 30-C , 33-H ) :   1.0123

Dispersion correction           -0.065562012
FINAL SINGLE POINT ENERGY     -1040.990869767442

DIPOLE MOMENT
-------------
                                X             Y             Z
Electronic contribution:    145.24598      -3.87196     -70.77376
Nuclear contribution   :   -148.61747       4.04670      71.83695
                        -----------------------------------------
Total Dipole Moment    :     -3.37149       0.17474       1.06319
                        -----------------------------------------
Magnitude (a.u.)       :      3.53947
Magnitude (Debye)      :      8.99662

Rotational constants in cm-1:     0.010327     0.008787     0.007812
Rotational constants in MHz :   309.600948   263.417504   234.204311

                             ****ORCA TERMINATED NORMALLY****
TOTAL RUN TIME: 0 days 0 hours 21 minutes 25 seconds 842 msec
