                         Program Version 4.2.0 -  RELEASE  -
|  1> #
|  2> # MOR22_pcy3 TPSSh-D3BJ/Def2-TZVPPD
|  3> #
|  4> ! tpssh d3bj def2-tzvppd def2/jk grid4 nofinalgrid
|  5>
|  6> *xyz 0 1
|  7> P       -0.216171   -0.083077   -1.104749
|  8> C        0.505342    1.551445   -0.512411
|  9> C        0.372168    1.952615    0.967298
| 10> C        0.853698    3.397029    1.180070
| 11> C        2.300662    3.578910    0.704200
| 12> C        2.457928    3.151362   -0.760734
| 13> C        1.965268    1.712769   -0.974950
| 14> C        0.795470   -1.465851   -0.339173
| 15> C        1.194026   -1.376002    1.141683
| 16> C        1.830829   -2.691519    1.617818
| 17> C        3.044522   -3.062049    0.755351
| 18> C        2.669205   -3.127202   -0.731177
| 19> C        2.022807   -1.816580   -1.203888
| 20> C       -1.786787   -0.169467   -0.086099
| 21> C       -2.713096    0.996882   -0.481425
| 22> C       -4.042154    0.954203    0.285800
| 23> C       -4.758728   -0.385405    0.080261
| 24> C       -3.846658   -1.555269    0.467941
| 25> C       -2.516136   -1.508613   -0.298163
| 26> H       -0.086881    2.275758   -1.095374
| 27> H        0.969845    1.279400    1.591405
| 28> H       -0.665694    1.858440    1.303963
| 29> H        0.763179    3.670246    2.238833
| 30> H        0.199154    4.078898    0.617939
| 31> H        2.616561    4.621342    0.833145
| 32> H        2.964320    2.965719    1.331124
| 33> H        1.874427    3.827995   -1.401227
| 34> H        3.505668    3.240568   -1.073514
| 35> H        2.061196    1.427054   -2.029468
| 36> H        2.603163    1.029346   -0.398698
| 37> H        0.103060   -2.317100   -0.439871
| 38> H        1.082328   -3.494681    1.556078
| 39> H        0.325749   -1.129652    1.763601
| 40> H        1.922184   -0.564787    1.270256
| 41> H        2.123181   -2.608981    2.672179
| 42> H        3.467034   -4.019422    1.084011
| 43> H        3.828662   -2.303820    0.895790
| 44> H        3.555664   -3.350052   -1.337889
| 45> H        1.959466   -3.952268   -0.888607
| 46> H        1.724465   -1.892063   -2.255831
| 47> H        2.762591   -1.008464   -1.141586
| 48> H       -1.543753   -0.076214    0.982532
| 49> H       -2.216101    1.957671   -0.306445
| 50> H       -2.910289    0.936504   -1.561343
| 51> H       -3.843829    1.098520    1.357699
| 52> H       -4.683867    1.784681   -0.033466
| 53> H       -5.041866   -0.483893   -0.977569
| 54> H       -5.687452   -0.415984    0.663015
| 55> H       -4.350272   -2.511559    0.279900
| 56> H       -3.640750   -1.510603    1.547174
| 57> H       -1.884435   -2.344750    0.021762
| 58> H       -2.704341   -1.645246   -1.372687
| 59> *
| 60>
| 61> %maxcore 5000
| 62>
| 63> %pal
| 64> nprocs = 24
| 65> end
| 66>
| 67>
| 68>                          ****END OF INPUT****

CARTESIAN COORDINATES (ANGSTROEM)
---------------------------------
  P     -0.216171   -0.083077   -1.104749
  C      0.505342    1.551445   -0.512411
  C      0.372168    1.952615    0.967298
  C      0.853698    3.397029    1.180070
  C      2.300662    3.578910    0.704200
  C      2.457928    3.151362   -0.760734
  C      1.965268    1.712769   -0.974950
  C      0.795470   -1.465851   -0.339173
  C      1.194026   -1.376002    1.141683
  C      1.830829   -2.691519    1.617818
  C      3.044522   -3.062049    0.755351
  C      2.669205   -3.127202   -0.731177
  C      2.022807   -1.816580   -1.203888
  C     -1.786787   -0.169467   -0.086099
  C     -2.713096    0.996882   -0.481425
  C     -4.042154    0.954203    0.285800
  C     -4.758728   -0.385405    0.080261
  C     -3.846658   -1.555269    0.467941
  C     -2.516136   -1.508613   -0.298163
  H     -0.086881    2.275758   -1.095374
  H      0.969845    1.279400    1.591405
  H     -0.665694    1.858440    1.303963
  H      0.763179    3.670246    2.238833
  H      0.199154    4.078898    0.617939
  H      2.616561    4.621342    0.833145
  H      2.964320    2.965719    1.331124
  H      1.874427    3.827995   -1.401227
  H      3.505668    3.240568   -1.073514
  H      2.061196    1.427054   -2.029468
  H      2.603163    1.029346   -0.398698
  H      0.103060   -2.317100   -0.439871
  H      1.082328   -3.494681    1.556078
  H      0.325749   -1.129652    1.763601
  H      1.922184   -0.564787    1.270256
  H      2.123181   -2.608981    2.672179
  H      3.467034   -4.019422    1.084011
  H      3.828662   -2.303820    0.895790
  H      3.555664   -3.350052   -1.337889
  H      1.959466   -3.952268   -0.888607
  H      1.724465   -1.892063   -2.255831
  H      2.762591   -1.008464   -1.141586
  H     -1.543753   -0.076214    0.982532
  H     -2.216101    1.957671   -0.306445
  H     -2.910289    0.936504   -1.561343
  H     -3.843829    1.098520    1.357699
  H     -4.683867    1.784681   -0.033466
  H     -5.041866   -0.483893   -0.977569
  H     -5.687452   -0.415984    0.663015
  H     -4.350272   -2.511559    0.279900
  H     -3.640750   -1.510603    1.547174
  H     -1.884435   -2.344750    0.021762
  H     -2.704341   -1.645246   -1.372687

 Total Charge           Charge          ....    0
 Multiplicity           Mult            ....    1
 Number of Electrons    NEL             ....  156
 Basis Dimension        Dim             .... 1275

ORBITAL ENERGIES
----------------

  NO   OCC          E(Eh)            E(eV)
   0   2.0000     -76.893628     -2092.3820
   1   2.0000     -10.112560      -275.1768
   2   2.0000     -10.111412      -275.1455
   3   2.0000     -10.111260      -275.1414
   4   2.0000     -10.106771      -275.0192
   5   2.0000     -10.106624      -275.0152
   6   2.0000     -10.106035      -274.9992
   7   2.0000     -10.105889      -274.9952
   8   2.0000     -10.105094      -274.9736
   9   2.0000     -10.105025      -274.9717
  10   2.0000     -10.104813      -274.9659
  11   2.0000     -10.104601      -274.9602
  12   2.0000     -10.104521      -274.9580
  13   2.0000     -10.104491      -274.9572
  14   2.0000     -10.104317      -274.9525
  15   2.0000     -10.103973      -274.9431
  16   2.0000     -10.103340      -274.9259
  17   2.0000     -10.103203      -274.9221
  18   2.0000     -10.102899      -274.9138
  19   2.0000      -6.449587      -175.5022
  20   2.0000      -4.599174      -125.1499
  21   2.0000      -4.599021      -125.1457
  22   2.0000      -4.594176      -125.0139
  23   2.0000      -0.814806       -22.1720
  24   2.0000      -0.805543       -21.9199
  25   2.0000      -0.805207       -21.9108
  26   2.0000      -0.738126       -20.0854
  27   2.0000      -0.721028       -19.6202
  28   2.0000      -0.719508       -19.5788
  29   2.0000      -0.717181       -19.5155
  30   2.0000      -0.712693       -19.3934
  31   2.0000      -0.711831       -19.3699
  32   2.0000      -0.618144       -16.8206
  33   2.0000      -0.593985       -16.1632
  34   2.0000      -0.591279       -16.0895
  35   2.0000      -0.584407       -15.9025
  36   2.0000      -0.578098       -15.7308
  37   2.0000      -0.577500       -15.7146
  38   2.0000      -0.544219       -14.8090
  39   2.0000      -0.534834       -14.5536
  40   2.0000      -0.530787       -14.4434
  41   2.0000      -0.505087       -13.7441
  42   2.0000      -0.459325       -12.4989
  43   2.0000      -0.455593       -12.3973
  44   2.0000      -0.448846       -12.2137
  45   2.0000      -0.427924       -11.6444
  46   2.0000      -0.422368       -11.4932
  47   2.0000      -0.421801       -11.4778
  48   2.0000      -0.421300       -11.4642
  49   2.0000      -0.419017       -11.4020
  50   2.0000      -0.416282       -11.3276
  51   2.0000      -0.412848       -11.2342
  52   2.0000      -0.399276       -10.8649
  53   2.0000      -0.392392       -10.6775
  54   2.0000      -0.367233        -9.9929
  55   2.0000      -0.363135        -9.8814
  56   2.0000      -0.361023        -9.8239
  57   2.0000      -0.359533        -9.7834
  58   2.0000      -0.358832        -9.7643
  59   2.0000      -0.353631        -9.6228
  60   2.0000      -0.342451        -9.3186
  61   2.0000      -0.337059        -9.1718
  62   2.0000      -0.333844        -9.0844
  63   2.0000      -0.327982        -8.9249
  64   2.0000      -0.327024        -8.8988
  65   2.0000      -0.325018        -8.8442
  66   2.0000      -0.319521        -8.6946
  67   2.0000      -0.318881        -8.6772
  68   2.0000      -0.310784        -8.4569
  69   2.0000      -0.305483        -8.3126
  70   2.0000      -0.297138        -8.0855
  71   2.0000      -0.293862        -7.9964
  72   2.0000      -0.286290        -7.7904
  73   2.0000      -0.284627        -7.7451
  74   2.0000      -0.281950        -7.6723
  75   2.0000      -0.252917        -6.8822
  76   2.0000      -0.252500        -6.8709
  77   2.0000      -0.198469        -5.4006
  78   0.0000      -0.002003        -0.0545
  79   0.0000       0.004223         0.1149
  80   0.0000       0.007275         0.1980
  81   0.0000       0.012778         0.3477
  82   0.0000       0.019694         0.5359

MULLIKEN ATOMIC CHARGES
-----------------------
   0 P :   -1.311780
   1 C :    0.483333
   2 C :    0.192432
   3 C :   -0.253344
   4 C :    0.139144
   5 C :   -0.162809
   6 C :   -0.234045
   7 C :    0.508329
   8 C :   -0.046748
   9 C :   -0.091480
  10 C :    0.076549
  11 C :   -0.156815
  12 C :   -0.091124
  13 C :    0.197524
  14 C :   -0.034426
  15 C :   -0.006309
  16 C :   -0.062894
  17 C :    0.015358
  18 C :   -0.109044
  19 H :    0.159614
  20 H :    0.074961
  21 H :   -0.137059
  22 H :   -0.079910
  23 H :    0.076035
  24 H :   -0.073875
  25 H :    0.080984
  26 H :    0.070519
  27 H :   -0.073809
  28 H :    0.019893
  29 H :    0.141246
  30 H :    0.199664
  31 H :    0.055691
  32 H :   -0.081305
  33 H :    0.158255
  34 H :   -0.090841
  35 H :   -0.065528
  36 H :    0.073551
  37 H :   -0.072974
  38 H :    0.056780
  39 H :   -0.014958
  40 H :    0.077803
  41 H :    0.278624
  42 H :   -0.082199
  43 H :    0.174951
  44 H :    0.056823
  45 H :   -0.073565
  46 H :    0.082117
  47 H :   -0.069522
  48 H :   -0.055224
  49 H :    0.050999
  50 H :   -0.130442
  51 H :    0.160852
Sum of atomic charges:   -0.0000000

LOEWDIN ATOMIC CHARGES
----------------------
   0 P :    1.139102
   1 C :   -0.328479
   2 C :   -0.026284
   3 C :   -0.007398
   4 C :   -0.015504
   5 C :   -0.011125
   6 C :   -0.049294
   7 C :   -0.329347
   8 C :   -0.028782
   9 C :   -0.008633
  10 C :   -0.016215
  11 C :   -0.013216
  12 C :   -0.047938
  13 C :   -0.349185
  14 C :   -0.049310
  15 C :   -0.011156
  16 C :   -0.018538
  17 C :   -0.012508
  18 C :   -0.043972
  19 H :   -0.012623
  20 H :    0.000431
  21 H :   -0.005783
  22 H :    0.009884
  23 H :    0.018165
  24 H :    0.008091
  25 H :    0.017428
  26 H :    0.017521
  27 H :    0.009444
  28 H :    0.009050
  29 H :   -0.000046
  30 H :   -0.023129
  31 H :    0.017558
  32 H :    0.005507
  33 H :    0.001777
  34 H :    0.009437
  35 H :    0.007856
  36 H :    0.017246
  37 H :    0.008869
  38 H :    0.016898
  39 H :    0.003475
  40 H :   -0.001149
  41 H :   -0.012075
  42 H :   -0.007236
  43 H :    0.018390
  44 H :    0.017955
  45 H :    0.009523
  46 H :    0.017364
  47 H :    0.008100
  48 H :    0.009111
  49 H :    0.017874
  50 H :   -0.005835
  51 H :    0.018705

  Mayer bond orders larger than 0.100000
B(  0-P ,  1-C ) :   0.5182 B(  0-P ,  6-C ) :   0.3453 B(  0-P ,  7-C ) :   0.4255
B(  0-P ,  8-C ) :   0.1896 B(  0-P , 12-C ) :   0.1527 B(  0-P , 13-C ) :   0.5176
B(  0-P , 14-C ) :   0.2489 B(  0-P , 19-H ) :  -0.1858 B(  0-P , 30-H ) :  -0.1079
B(  0-P , 39-H ) :  -0.1402 B(  1-C ,  2-C ) :   0.9389 B(  1-C ,  3-C ) :   0.2971
B(  1-C ,  5-C ) :   0.3410 B(  1-C ,  6-C ) :   1.0946 B(  1-C ,  7-C ) :   0.1700
B(  1-C , 13-C ) :   0.1055 B(  1-C , 19-H ) :   0.8180 B(  2-C ,  3-C ) :   1.0004
B(  2-C ,  4-C ) :   0.1386 B(  2-C ,  6-C ) :   0.1501 B(  2-C , 20-H ) :   0.8702
B(  2-C , 21-H ) :   0.8964 B(  3-C ,  4-C ) :   0.9460 B(  3-C ,  5-C ) :   0.2089
B(  3-C , 21-H ) :   0.1568 B(  3-C , 22-H ) :   0.9045 B(  3-C , 23-H ) :   0.9287
B(  4-C ,  5-C ) :   0.9713 B(  4-C ,  6-C ) :   0.1205 B(  4-C , 24-H ) :   0.9713
B(  4-C , 25-H ) :   0.9167 B(  5-C ,  6-C ) :   0.9509 B(  5-C , 26-H ) :   0.9495
B(  5-C , 27-H ) :   0.9456 B(  6-C , 12-C ) :   0.1042 B(  6-C , 28-H ) :   0.8644
B(  6-C , 29-H ) :   0.9109 B(  7-C ,  8-C ) :   1.0989 B(  7-C ,  9-C ) :   0.2880
B(  7-C , 11-C ) :   0.2789 B(  7-C , 12-C ) :   1.1055 B(  7-C , 13-C ) :   0.1949
B(  7-C , 18-C ) :   0.1064 B(  7-C , 30-H ) :   0.7792 B(  7-C , 39-H ) :   0.1338
B(  8-C ,  9-C ) :   0.9669 B(  8-C , 10-C ) :   0.1428 B(  8-C , 32-H ) :   0.9309
B(  8-C , 33-H ) :   0.8827 B(  9-C , 10-C ) :   0.9610 B(  9-C , 11-C ) :   0.1769
B(  9-C , 31-H ) :   0.9296 B(  9-C , 34-H ) :   0.9228 B( 10-C , 11-C ) :   0.9775
B( 10-C , 12-C ) :   0.1113 B( 10-C , 35-H ) :   0.9747 B( 10-C , 36-H ) :   0.9344
B( 11-C , 12-C ) :   0.8606 B( 11-C , 37-H ) :   0.9513 B( 11-C , 38-H ) :   0.9723
B( 12-C , 39-H ) :   0.9157 B( 12-C , 40-H ) :   0.9273 B( 13-C , 14-C ) :   1.0935
B( 13-C , 15-C ) :   0.2832 B( 13-C , 17-C ) :   0.2438 B( 13-C , 18-C ) :   1.1255
B( 13-C , 41-H ) :   0.7910 B( 14-C , 15-C ) :   0.8229 B( 14-C , 16-C ) :   0.2181
B( 14-C , 41-H ) :  -0.1118 B( 14-C , 42-H ) :   0.9571 B( 14-C , 43-H ) :   0.7911
B( 15-C , 16-C ) :   0.9572 B( 15-C , 17-C ) :   0.1264 B( 15-C , 42-H ) :   0.1678
B( 15-C , 44-H ) :   0.9306 B( 15-C , 45-H ) :   0.9730 B( 16-C , 17-C ) :   0.9542
B( 16-C , 18-C ) :   0.2377 B( 16-C , 46-H ) :   0.9518 B( 16-C , 47-H ) :   0.9671
B( 17-C , 18-C ) :   0.7915 B( 17-C , 48-H ) :   0.9750 B( 17-C , 49-H ) :   0.9258
B( 17-C , 50-H ) :   0.1697 B( 18-C , 50-H ) :   0.9599 B( 18-C , 51-H ) :   0.8156

Dispersion correction           -0.079378692
FINAL SINGLE POINT ENERGY     -1047.594333708082

DIPOLE MOMENT
-------------
                                X             Y             Z
Electronic contribution:     -1.36800      -0.47815      -6.52735
Nuclear contribution   :      1.41899       0.52417       7.05083
                        -----------------------------------------
Total Dipole Moment    :      0.05099       0.04602       0.52348
                        -----------------------------------------
Magnitude (a.u.)       :      0.52797
Magnitude (Debye)      :      1.34199

Rotational constants in cm-1:     0.011612     0.009073     0.005947
Rotational constants in MHz :   348.132374   272.016111   178.294122

                             ****ORCA TERMINATED NORMALLY****
TOTAL RUN TIME: 0 days 0 hours 26 minutes 57 seconds 682 msec
