                         Program Version 4.2.0 -  RELEASE  -
|  1> #
|  2> # MOR20_i2 TPSSh-D3BJ/Def2-TZVPPD
|  3> #
|  4> ! tpssh d3bj def2-tzvppd def2/jk grid4 nofinalgrid
|  5>
|  6> *xyz 0 1
|  7> I        0.000000    0.000000    1.341554
|  8> I        0.000000    0.000000   -1.341554
|  9> *
| 10>
| 11> %maxcore 5000
| 12>
| 13> %pal
| 14> nprocs = 24
| 15> end
| 16>
| 17>
| 18>                          ****END OF INPUT****

CARTESIAN COORDINATES (ANGSTROEM)
---------------------------------
  I      0.000000    0.000000    1.341554
  I      0.000000    0.000000   -1.341554

 Total Charge           Charge          ....    0
 Multiplicity           Mult            ....    1
 Number of Electrons    NEL             ....   50
 Basis Dimension        Dim             ....  118

ORBITAL ENERGIES
----------------

  NO   OCC          E(Eh)            E(eV)
   0   2.0000      -6.789643      -184.7556
   1   2.0000      -6.789635      -184.7554
   2   2.0000      -4.830293      -131.4390
   3   2.0000      -4.830135      -131.4347
   4   2.0000      -4.813611      -130.9850
   5   2.0000      -4.813611      -130.9850
   6   2.0000      -4.813600      -130.9847
   7   2.0000      -4.813600      -130.9847
   8   2.0000      -1.904394       -51.8212
   9   2.0000      -1.900113       -51.7047
  10   2.0000      -1.897970       -51.6464
  11   2.0000      -1.897970       -51.6464
  12   2.0000      -1.896738       -51.6129
  13   2.0000      -1.896738       -51.6129
  14   2.0000      -1.883561       -51.2543
  15   2.0000      -1.883536       -51.2536
  16   2.0000      -1.883454       -51.2514
  17   2.0000      -1.883429       -51.2507
  18   2.0000      -0.730458       -19.8768
  19   2.0000      -0.646987       -17.6054
  20   2.0000      -0.370366       -10.0782
  21   2.0000      -0.310934        -8.4610
  22   2.0000      -0.310934        -8.4609
  23   2.0000      -0.250349        -6.8123
  24   2.0000      -0.250349        -6.8123
  25   0.0000      -0.152273        -4.1435
  26   0.0000       0.010313         0.2806
  27   0.0000       0.014502         0.3946
  28   0.0000       0.024714         0.6725
  29   0.0000       0.024714         0.6725

MULLIKEN ATOMIC CHARGES
-----------------------
   0 I :    0.000000
   1 I :   -0.000000
Sum of atomic charges:   -0.0000000

LOEWDIN ATOMIC CHARGES
----------------------
   0 I :   -0.000000
   1 I :    0.000000

  Mayer bond orders larger than 0.100000
B(  0-I ,  1-I ) :   1.0077

Dispersion correction           -0.002356355
FINAL SINGLE POINT ENERGY      -595.257005266567

DIPOLE MOMENT
-------------
                                X             Y             Z
Electronic contribution:     -0.00000      -0.00000       0.00000
Nuclear contribution   :      0.00000       0.00000       0.00000
                        -----------------------------------------
Total Dipole Moment    :     -0.00000      -0.00000       0.00000
                        -----------------------------------------
Magnitude (a.u.)       :      0.00000
Magnitude (Debye)      :      0.00000

Rotational constants in cm-1:     0.000000     0.036905     0.036905
Rotational constants in MHz :     0.000000  1106.393636  1106.393636

                             ****ORCA TERMINATED NORMALLY****
TOTAL RUN TIME: 0 days 0 hours 0 minutes 6 seconds 193 msec
