                         Program Version 4.2.0 -  RELEASE  -
|  1> #
|  2> # MOR21_mecn TPSSh-D3BJ/Def2-TZVPPD
|  3> #
|  4> ! tpssh d3bj def2-tzvppd def2/jk grid4 nofinalgrid
|  5>
|  6> *xyz 0 1
|  7> N        1.434594    0.083513   -0.053227
|  8> C        0.278345    0.016206   -0.010325
|  9> C       -1.176577   -0.068494    0.043652
| 10> H       -1.556498   -0.572512   -0.849824
| 11> H       -1.609231    0.934929    0.094890
| 12> H       -1.487035   -0.633283    0.927565
| 13> *
| 14>
| 15> %maxcore 5000
| 16>
| 17> %pal
| 18> nprocs = 24
| 19> end
| 20>
| 21>
| 22>                          ****END OF INPUT****

CARTESIAN COORDINATES (ANGSTROEM)
---------------------------------
  N      1.434594    0.083513   -0.053227
  C      0.278345    0.016206   -0.010325
  C     -1.176577   -0.068494    0.043652
  H     -1.556498   -0.572512   -0.849824
  H     -1.609231    0.934929    0.094890
  H     -1.487035   -0.633283    0.927565

 Total Charge           Charge          ....    0
 Multiplicity           Mult            ....    1
 Number of Electrons    NEL             ....   22
 Basis Dimension        Dim             ....  162

ORBITAL ENERGIES
----------------

  NO   OCC          E(Eh)            E(eV)
   0   2.0000     -14.248823      -387.7302
   1   2.0000     -10.170218      -276.7457
   2   2.0000     -10.152103      -276.2528
   3   2.0000      -0.884003       -24.0549
   4   2.0000      -0.761660       -20.7258
   5   2.0000      -0.503201       -13.6928
   6   2.0000      -0.452667       -12.3177
   7   2.0000      -0.452663       -12.3176
   8   2.0000      -0.346795        -9.4368
   9   2.0000      -0.318517        -8.6673
  10   2.0000      -0.318517        -8.6673
  11   0.0000      -0.008094        -0.2202
  12   0.0000       0.009986         0.2717
  13   0.0000       0.009986         0.2717
  14   0.0000       0.046527         1.2661
  15   0.0000       0.074868         2.0373

MULLIKEN ATOMIC CHARGES
-----------------------
   0 N :   -0.201861
   1 C :   -0.058920
   2 C :    0.105746
   3 H :    0.051520
   4 H :    0.051826
   5 H :    0.051689
Sum of atomic charges:    0.0000000

LOEWDIN ATOMIC CHARGES
----------------------
   0 N :    0.124485
   1 C :   -0.241273
   2 C :    0.136394
   3 H :   -0.006537
   4 H :   -0.006533
   5 H :   -0.006536

  Mayer bond orders larger than 0.100000
B(  0-N ,  1-C ) :   2.3398 B(  1-C ,  2-C ) :   1.0355 B(  2-C ,  3-H ) :   0.9582
B(  2-C ,  4-H ) :   0.9575 B(  2-C ,  5-H ) :   0.9584

Dispersion correction           -0.003105431
FINAL SINGLE POINT ENERGY      -132.815955979542

DIPOLE MOMENT
-------------
                                X             Y             Z
Electronic contribution:      3.10509       0.18077      -0.11522
Nuclear contribution   :     -4.67428      -0.27212       0.17343
                        -----------------------------------------
Total Dipole Moment    :     -1.56919      -0.09134       0.05821
                        -----------------------------------------
Magnitude (a.u.)       :      1.57292
Magnitude (Debye)      :      3.99804

Rotational constants in cm-1:     5.279638     0.306561     0.306561
Rotational constants in MHz : 158279.554854  9190.460473  9190.452676

                             ****ORCA TERMINATED NORMALLY****
TOTAL RUN TIME: 0 days 0 hours 0 minutes 4 seconds 163 msec
