                         Program Version 4.2.0 -  RELEASE  -
|  1> #
|  2> # MOR25_pr01 TPSSh-D3BJ/Def2-TZVPPD
|  3> #
|  4> ! tpssh d3bj def2-tzvppd def2/jk grid4 nofinalgrid
|  5>
|  6> *xyz 0 1
|  7> Cr      -0.000002    0.000001   -0.000002
|  8> O       -2.697134   -0.646688    1.294578
|  9> C       -1.683963   -0.403751    0.808266
| 10> C        0.796729   -1.469777    0.925736
| 11> O        1.276107   -2.354083    1.482723
| 12> C        1.683955    0.403738   -0.808274
| 13> O        2.697131    0.646654   -1.294589
| 14> C        0.426065    1.152703    1.463476
| 15> O        0.682414    1.846242    2.344001
| 16> C       -0.426072   -1.152714   -1.463481
| 17> O       -0.682416   -1.846267   -2.343994
| 18> C       -0.796727    1.469805   -0.925736
| 19> O       -1.276085    2.354134   -1.482702
| 20> *
| 21>
| 22> %maxcore 5000
| 23>
| 24> %pal
| 25> nprocs = 24
| 26> end
| 27>
| 28>
| 29>                          ****END OF INPUT****

CARTESIAN COORDINATES (ANGSTROEM)
---------------------------------
  Cr    -0.000002    0.000001   -0.000002
  O     -2.697134   -0.646688    1.294578
  C     -1.683963   -0.403751    0.808266
  C      0.796729   -1.469777    0.925736
  O      1.276107   -2.354083    1.482723
  C      1.683955    0.403738   -0.808274
  O      2.697131    0.646654   -1.294589
  C      0.426065    1.152703    1.463476
  O      0.682414    1.846242    2.344001
  C     -0.426072   -1.152714   -1.463481
  O     -0.682416   -1.846267   -2.343994
  C     -0.796727    1.469805   -0.925736
  O     -1.276085    2.354134   -1.482702

 Total Charge           Charge          ....    0
 Multiplicity           Mult            ....    1
 Number of Electrons    NEL             ....  108
 Basis Dimension        Dim             ....  529

ORBITAL ENERGIES
----------------

  NO   OCC          E(Eh)            E(eV)
   0   2.0000    -215.560355     -5865.6955
   1   2.0000     -24.626968      -670.1339
   2   2.0000     -20.893768      -568.5483
   3   2.0000     -20.893767      -568.5483
   4   2.0000     -20.893767      -568.5483
   5   2.0000     -19.150297      -521.1061
   6   2.0000     -19.150296      -521.1060
   7   2.0000     -19.150295      -521.1060
   8   2.0000     -19.150294      -521.1060
   9   2.0000     -19.150292      -521.1059
  10   2.0000     -19.150288      -521.1058
  11   2.0000     -10.245566      -278.7960
  12   2.0000     -10.245564      -278.7960
  13   2.0000     -10.245562      -278.7959
  14   2.0000     -10.245560      -278.7959
  15   2.0000     -10.245557      -278.7958
  16   2.0000     -10.245554      -278.7957
  17   2.0000      -2.865371       -77.9707
  18   2.0000      -1.816275       -49.4233
  19   2.0000      -1.816273       -49.4233
  20   2.0000      -1.816273       -49.4233
  21   2.0000      -1.128034       -30.6954
  22   2.0000      -1.126995       -30.6671
  23   2.0000      -1.126993       -30.6670
  24   2.0000      -1.126993       -30.6670
  25   2.0000      -1.126594       -30.6562
  26   2.0000      -1.126592       -30.6561
  27   2.0000      -0.610488       -16.6122
  28   2.0000      -0.562867       -15.3164
  29   2.0000      -0.562866       -15.3164
  30   2.0000      -0.562865       -15.3163
  31   2.0000      -0.559147       -15.2152
  32   2.0000      -0.559146       -15.2151
  33   2.0000      -0.492817       -13.4102
  34   2.0000      -0.470869       -12.8130
  35   2.0000      -0.470869       -12.8130
  36   2.0000      -0.470868       -12.8130
  37   2.0000      -0.467794       -12.7293
  38   2.0000      -0.467793       -12.7293
  39   2.0000      -0.467792       -12.7293
  40   2.0000      -0.451869       -12.2960
  41   2.0000      -0.451868       -12.2959
  42   2.0000      -0.451868       -12.2959
  43   2.0000      -0.445002       -12.1091
  44   2.0000      -0.445001       -12.1091
  45   2.0000      -0.445001       -12.1091
  46   2.0000      -0.440958       -11.9991
  47   2.0000      -0.440951       -11.9989
  48   2.0000      -0.407324       -11.0838
  49   2.0000      -0.407322       -11.0838
  50   2.0000      -0.407317       -11.0837
  51   2.0000      -0.252281        -6.8649
  52   2.0000      -0.252273        -6.8647
  53   2.0000      -0.252272        -6.8647
  54   0.0000      -0.075115        -2.0440
  55   0.0000      -0.075113        -2.0439
  56   0.0000      -0.075112        -2.0439
  57   0.0000      -0.057008        -1.5513
  58   0.0000      -0.057006        -1.5512

MULLIKEN ATOMIC CHARGES
-----------------------
   0 Cr:   -1.852175
   1 O :   -0.308141
   2 C :    0.616827
   3 C :    0.617324
   4 O :   -0.308040
   5 C :    0.616860
   6 O :   -0.308106
   7 C :    0.615732
   8 O :   -0.308002
   9 C :    0.616261
  10 O :   -0.308143
  11 C :    0.617774
  12 O :   -0.308170
Sum of atomic charges:   -0.0000000

LOEWDIN ATOMIC CHARGES
----------------------
   0 Cr:   -0.451593
   1 O :    0.163049
   2 C :   -0.087777
   3 C :   -0.087772
   4 O :    0.163043
   5 C :   -0.087780
   6 O :    0.163047
   7 C :   -0.087792
   8 O :    0.163037
   9 C :   -0.087785
  10 O :    0.163039
  11 C :   -0.087760
  12 O :    0.163044

  Mayer bond orders larger than 0.100000
B(  0-Cr,  1-O ) :   0.2213 B(  0-Cr,  2-C ) :   0.9070 B(  0-Cr,  3-C ) :   0.9068
B(  0-Cr,  4-O ) :   0.2208 B(  0-Cr,  5-C ) :   0.9073 B(  0-Cr,  6-O ) :   0.2212
B(  0-Cr,  7-C ) :   0.9077 B(  0-Cr,  8-O ) :   0.2206 B(  0-Cr,  9-C ) :   0.9075
B(  0-Cr, 10-O ) :   0.2211 B(  0-Cr, 11-C ) :   0.9068 B(  0-Cr, 12-O ) :   0.2211
B(  1-O ,  2-C ) :   1.9622 B(  3-C ,  4-O ) :   1.9624 B(  5-C ,  6-O ) :   1.9621
B(  7-C ,  8-O ) :   1.9624 B(  9-C , 10-O ) :   1.9620 B( 11-C , 12-O ) :   1.9623

Dispersion correction           -0.024369238
FINAL SINGLE POINT ENERGY     -1724.940216570880

DIPOLE MOMENT
-------------
                                X             Y             Z
Electronic contribution:     -0.00005       0.00001      -0.00005
Nuclear contribution   :      0.00001      -0.00000       0.00001
                        -----------------------------------------
Total Dipole Moment    :     -0.00004       0.00001      -0.00004
                        -----------------------------------------
Magnitude (a.u.)       :      0.00006
Magnitude (Debye)      :      0.00014

Rotational constants in cm-1:     0.021751     0.021751     0.021751
Rotational constants in MHz :   652.090818   652.088663   652.088001

                             ****ORCA TERMINATED NORMALLY****
TOTAL RUN TIME: 0 days 0 hours 1 minutes 49 seconds 632 msec
