                         Program Version 4.2.0 -  RELEASE  -
|  1> #
|  2> # MOR36_pr37 TPSSh-D3BJ/Def2-TZVPPD
|  3> #
|  4> ! tpssh d3bj def2-tzvppd def2/jk grid4 nofinalgrid
|  5>
|  6> *xyz 0 1
|  7> Mo       0.000106   -0.000070   -0.471377
|  8> C        0.514398   -1.514915   -1.646050
|  9> C        1.055079    1.202350   -1.646249
| 10> C       -1.568474    0.311983   -1.646660
| 11> O       -2.484520    0.493946   -2.346732
| 12> O        0.814970   -2.399453   -2.345765
| 13> O        1.670957    1.904692   -2.346079
| 14> N       -1.133555   -1.291008    0.811792
| 15> N       -0.551576    1.627166    0.811584
| 16> N        1.684684   -0.335905    0.812231
| 17> C        2.623715   -0.523292    1.470917
| 18> C       -0.858944    2.534303    1.469905
| 19> C       -1.765652   -2.010491    1.470244
| 20> C       -2.579903   -2.936733    2.238371
| 21> H       -3.631237   -2.631169    2.207389
| 22> H       -2.252645   -2.962558    3.282907
| 23> H       -2.496617   -3.945451    1.819577
| 24> C       -1.254401    3.702555    2.237857
| 25> H       -0.464690    4.460832    2.206160
| 26> H       -1.439592    3.432273    3.282594
| 27> H       -2.170183    4.133961    1.819442
| 28> C        3.832875   -0.764956    2.239344
| 29> H        4.094105   -1.828181    2.208653
| 30> H        3.691346   -0.468421    3.283785
| 31> H        4.664793   -0.188419    1.820591
| 32> *
| 33>
| 34> %maxcore 5000
| 35>
| 36> %pal
| 37> nprocs = 24
| 38> end
| 39>
| 40>
| 41>                          ****END OF INPUT****

CARTESIAN COORDINATES (ANGSTROEM)
---------------------------------
  Mo     0.000106   -0.000070   -0.471377
  C      0.514398   -1.514915   -1.646050
  C      1.055079    1.202350   -1.646249
  C     -1.568474    0.311983   -1.646660
  O     -2.484520    0.493946   -2.346732
  O      0.814970   -2.399453   -2.345765
  O      1.670957    1.904692   -2.346079
  N     -1.133555   -1.291008    0.811792
  N     -0.551576    1.627166    0.811584
  N      1.684684   -0.335905    0.812231
  C      2.623715   -0.523292    1.470917
  C     -0.858944    2.534303    1.469905
  C     -1.765652   -2.010491    1.470244
  C     -2.579903   -2.936733    2.238371
  H     -3.631237   -2.631169    2.207389
  H     -2.252645   -2.962558    3.282907
  H     -2.496617   -3.945451    1.819577
  C     -1.254401    3.702555    2.237857
  H     -0.464690    4.460832    2.206160
  H     -1.439592    3.432273    3.282594
  H     -2.170183    4.133961    1.819442
  C      3.832875   -0.764956    2.239344
  H      4.094105   -1.828181    2.208653
  H      3.691346   -0.468421    3.283785
  H      4.664793   -0.188419    1.820591

 Total Charge           Charge          ....    0
 Multiplicity           Mult            ....    1
 Number of Electrons    NEL             ....  122
 Basis Dimension        Dim             ....  773

ORBITAL ENERGIES
----------------

  NO   OCC          E(Eh)            E(eV)
   0   2.0000     -19.057593      -518.5835
   1   2.0000     -19.057590      -518.5834
   2   2.0000     -19.057586      -518.5833
   3   2.0000     -14.277520      -388.5111
   4   2.0000     -14.277516      -388.5110
   5   2.0000     -14.277511      -388.5108
   6   2.0000     -10.175520      -276.8900
   7   2.0000     -10.175517      -276.8899
   8   2.0000     -10.175514      -276.8898
   9   2.0000     -10.166870      -276.6546
  10   2.0000     -10.166869      -276.6546
  11   2.0000     -10.166866      -276.6545
  12   2.0000     -10.151772      -276.2438
  13   2.0000     -10.151769      -276.2437
  14   2.0000     -10.151765      -276.2436
  15   2.0000      -2.458592       -66.9017
  16   2.0000      -1.474699       -40.1286
  17   2.0000      -1.471192       -40.0332
  18   2.0000      -1.471191       -40.0331
  19   2.0000      -1.029871       -28.0242
  20   2.0000      -1.029257       -28.0075
  21   2.0000      -1.029253       -28.0074
  22   2.0000      -0.905797       -24.6480
  23   2.0000      -0.903475       -24.5848
  24   2.0000      -0.903470       -24.5847
  25   2.0000      -0.768733       -20.9183
  26   2.0000      -0.768311       -20.9068
  27   2.0000      -0.768310       -20.9068
  28   2.0000      -0.522999       -14.2315
  29   2.0000      -0.515590       -14.0299
  30   2.0000      -0.515588       -14.0299
  31   2.0000      -0.494383       -13.4528
  32   2.0000      -0.479893       -13.0585
  33   2.0000      -0.479891       -13.0585
  34   2.0000      -0.458551       -12.4778
  35   2.0000      -0.458042       -12.4640
  36   2.0000      -0.458041       -12.4639
  37   2.0000      -0.457368       -12.4456
  38   2.0000      -0.457368       -12.4456
  39   2.0000      -0.456932       -12.4337
  40   2.0000      -0.439003       -11.9459
  41   2.0000      -0.426261       -11.5992
  42   2.0000      -0.426256       -11.5990
  43   2.0000      -0.378814       -10.3081
  44   2.0000      -0.375894       -10.2286
  45   2.0000      -0.375893       -10.2286
  46   2.0000      -0.366480        -9.9724
  47   2.0000      -0.366477        -9.9723
  48   2.0000      -0.363046        -9.8790
  49   2.0000      -0.358694        -9.7605
  50   2.0000      -0.349394        -9.5075
  51   2.0000      -0.349391        -9.5074
  52   2.0000      -0.339126        -9.2281
  53   2.0000      -0.339124        -9.2280
  54   2.0000      -0.335349        -9.1253
  55   2.0000      -0.332002        -9.0342
  56   2.0000      -0.326872        -8.8946
  57   2.0000      -0.326872        -8.8946
  58   2.0000      -0.156582        -4.2608
  59   2.0000      -0.153129        -4.1669
  60   2.0000      -0.153126        -4.1668
  61   0.0000      -0.022828        -0.6212
  62   0.0000      -0.020996        -0.5713
  63   0.0000      -0.020988        -0.5711
  64   0.0000      -0.017457        -0.4750
  65   0.0000      -0.008857        -0.2410

MULLIKEN ATOMIC CHARGES
-----------------------
   0 Mo:   -1.022754
   1 C :    0.662733
   2 C :    0.662953
   3 C :    0.662620
   4 O :   -0.413166
   5 O :   -0.413307
   6 O :   -0.413287
   7 N :    0.158715
   8 N :    0.157710
   9 N :    0.159246
  10 C :   -0.134523
  11 C :   -0.133616
  12 C :   -0.132665
  13 C :   -0.129801
  14 H :    0.066188
  15 H :    0.067397
  16 H :    0.061738
  17 C :   -0.128863
  18 H :    0.066190
  19 H :    0.067256
  20 H :    0.062165
  21 C :   -0.127009
  22 H :    0.065778
  23 H :    0.066873
  24 H :    0.061429
Sum of atomic charges:   -0.0000000

LOEWDIN ATOMIC CHARGES
----------------------
   0 Mo:    0.481678
   1 C :   -0.271668
   2 C :   -0.271662
   3 C :   -0.271670
   4 O :    0.028839
   5 O :    0.028852
   6 O :    0.028849
   7 N :    0.059207
   8 N :    0.059209
   9 N :    0.059177
  10 C :   -0.124513
  11 C :   -0.124490
  12 C :   -0.124495
  13 C :    0.154157
  14 H :   -0.001503
  15 H :   -0.004863
  16 H :   -0.000230
  17 C :    0.154155
  18 H :   -0.001504
  19 H :   -0.004864
  20 H :   -0.000227
  21 C :    0.154169
  22 H :   -0.001503
  23 H :   -0.004867
  24 H :   -0.000233

  Mayer bond orders larger than 0.100000
B(  0-Mo,  1-C ) :   1.4938 B(  0-Mo,  2-C ) :   1.4934 B(  0-Mo,  3-C ) :   1.4935
B(  0-Mo,  4-O ) :   0.1533 B(  0-Mo,  5-O ) :   0.1533 B(  0-Mo,  6-O ) :   0.1533
B(  0-Mo,  7-N ) :   0.5488 B(  0-Mo,  8-N ) :   0.5484 B(  0-Mo,  9-N ) :   0.5512
B(  1-C ,  5-O ) :   1.7794 B(  2-C ,  6-O ) :   1.7791 B(  3-C ,  4-O ) :   1.7792
B(  7-N , 12-C ) :   2.6867 B(  8-N , 11-C ) :   2.6858 B(  9-N , 10-C ) :   2.6873
B( 10-C , 21-C ) :   0.8582 B( 11-C , 17-C ) :   0.8595 B( 12-C , 13-C ) :   0.8569
B( 13-C , 14-H ) :   0.9741 B( 13-C , 15-H ) :   0.9667 B( 13-C , 16-H ) :   0.9788
B( 17-C , 18-H ) :   0.9741 B( 17-C , 19-H ) :   0.9663 B( 17-C , 20-H ) :   0.9780
B( 21-C , 22-H ) :   0.9737 B( 21-C , 23-H ) :   0.9665 B( 21-C , 24-H ) :   0.9788

Dispersion correction           -0.035984919
FINAL SINGLE POINT ENERGY      -806.982098173557

DIPOLE MOMENT
-------------
                                X             Y             Z
Electronic contribution:      0.00907      -0.00587     -40.64339
Nuclear contribution   :     -0.01011       0.00649      45.69854
                        -----------------------------------------
Total Dipole Moment    :     -0.00104       0.00062       5.05515
                        -----------------------------------------
Magnitude (a.u.)       :      5.05515
Magnitude (Debye)      :     12.84918

Rotational constants in cm-1:     0.011429     0.011429     0.011227
Rotational constants in MHz :   342.640201   342.631727   336.586559

                             ****ORCA TERMINATED NORMALLY****
TOTAL RUN TIME: 0 days 0 hours 3 minutes 51 seconds 354 msec
