                         Program Version 4.2.0 -  RELEASE  -
|  1> #
|  2> # MOR31_pr20 TPSSh-D3BJ/Def2-TZVPPD
|  3> #
|  4> ! tpssh d3bj def2-tzvppd def2/jk grid4 nofinalgrid
|  5>
|  6> *xyz 0 1
|  7> Ir       0.002477   -0.015286    0.083430
|  8> P       -2.348177   -0.226580   -0.058132
|  9> C       -2.872702   -1.550327   -1.188803
| 10> C       -3.160695   -0.601199    1.533451
| 11> H       -2.768983   -1.545856    1.920385
| 12> H       -3.035053    2.092169    0.038161
| 13> H       -4.244853   -0.682241    1.406776
| 14> H       -2.786362    1.529395   -1.637172
| 15> H       -3.965660   -1.602102   -1.229325
| 16> H       -2.934726    0.195116    2.248250
| 17> C       -3.202684    1.268779   -0.660861
| 18> H       -2.461852   -1.335119   -2.177902
| 19> H       -4.277134    1.082313   -0.755690
| 20> H       -2.448990   -2.494963   -0.841403
| 21> P        2.371733   -0.033051   -0.048079
| 22> C        3.118147   -1.146577    1.190097
| 23> C        2.988864   -0.646513   -1.645491
| 24> H        2.993037    2.252530   -0.586719
| 25> H        4.326367    1.397945    0.228668
| 26> H        2.927925    1.991387    1.168046
| 27> C        3.242996    1.555288    0.216058
| 28> H        4.081131   -0.719105   -1.623165
| 29> H        2.539412   -1.627874   -1.816909
| 30> H        4.198017   -1.226939    1.030710
| 31> H        2.645385   -2.126625    1.084325
| 32> H        2.665924    0.027013   -2.441495
| 33> H        2.928294   -0.762471    2.196181
| 34> C        0.041875   -0.376924    1.901008
| 35> O        0.060916   -0.624538    3.028225
| 36> Cl       0.274891   -2.517433   -0.343637
| 37> C       -0.190594    2.003978    0.494123
| 38> O       -0.529496    2.399253    1.599170
| 39> Cl      -0.136178    0.364638   -2.291447
| 40> C        0.062980    3.028488   -0.607541
| 41> H        0.210382    4.010245   -0.149220
| 42> H       -0.815546    3.056386   -1.260585
| 43> H        0.900599    2.750150   -1.247819
| 44> *
| 45>
| 46> %maxcore 5000
| 47>
| 48> %pal
| 49> nprocs = 24
| 50> end
| 51>
| 52>
| 53>                          ****END OF INPUT****

CARTESIAN COORDINATES (ANGSTROEM)
---------------------------------
  Ir     0.002477   -0.015286    0.083430
  P     -2.348177   -0.226580   -0.058132
  C     -2.872702   -1.550327   -1.188803
  C     -3.160695   -0.601199    1.533451
  H     -2.768983   -1.545856    1.920385
  H     -3.035053    2.092169    0.038161
  H     -4.244853   -0.682241    1.406776
  H     -2.786362    1.529395   -1.637172
  H     -3.965660   -1.602102   -1.229325
  H     -2.934726    0.195116    2.248250
  C     -3.202684    1.268779   -0.660861
  H     -2.461852   -1.335119   -2.177902
  H     -4.277134    1.082313   -0.755690
  H     -2.448990   -2.494963   -0.841403
  P      2.371733   -0.033051   -0.048079
  C      3.118147   -1.146577    1.190097
  C      2.988864   -0.646513   -1.645491
  H      2.993037    2.252530   -0.586719
  H      4.326367    1.397945    0.228668
  H      2.927925    1.991387    1.168046
  C      3.242996    1.555288    0.216058
  H      4.081131   -0.719105   -1.623165
  H      2.539412   -1.627874   -1.816909
  H      4.198017   -1.226939    1.030710
  H      2.645385   -2.126625    1.084325
  H      2.665924    0.027013   -2.441495
  H      2.928294   -0.762471    2.196181
  C      0.041875   -0.376924    1.901008
  O      0.060916   -0.624538    3.028225
  Cl     0.274891   -2.517433   -0.343637
  C     -0.190594    2.003978    0.494123
  O     -0.529496    2.399253    1.599170
  Cl    -0.136178    0.364638   -2.291447
  C      0.062980    3.028488   -0.607541
  H      0.210382    4.010245   -0.149220
  H     -0.815546    3.056386   -1.260585
  H      0.900599    2.750150   -1.247819

 Total Charge           Charge          ....    0
 Multiplicity           Mult            ....    1
 Number of Electrons    NEL             ....  172
 Basis Dimension        Dim             .... 1027

ORBITAL ENERGIES
----------------

  NO   OCC          E(Eh)            E(eV)
   0   2.0000    -101.315237     -2756.9277
   1   2.0000    -101.291721     -2756.2879
   2   2.0000     -76.970184     -2094.4652
   3   2.0000     -76.970040     -2094.4613
   4   2.0000     -19.131421      -520.5924
   5   2.0000     -19.038841      -518.0732
   6   2.0000     -10.239753      -278.6378
   7   2.0000     -10.195268      -277.4273
   8   2.0000     -10.136964      -275.8408
   9   2.0000     -10.133965      -275.7592
  10   2.0000     -10.131604      -275.6950
  11   2.0000     -10.128816      -275.6191
  12   2.0000     -10.122484      -275.4468
  13   2.0000     -10.121211      -275.4121
  14   2.0000     -10.111263      -275.1415
  15   2.0000      -9.316721      -253.5209
  16   2.0000      -9.292695      -252.8671
  17   2.0000      -7.061802      -192.1614
  18   2.0000      -7.056823      -192.0259
  19   2.0000      -7.056519      -192.0176
  20   2.0000      -7.037414      -191.4978
  21   2.0000      -7.033051      -191.3790
  22   2.0000      -7.032742      -191.3706
  23   2.0000      -6.523798      -177.5216
  24   2.0000      -6.523727      -177.5196
  25   2.0000      -4.673082      -127.1610
  26   2.0000      -4.672969      -127.1579
  27   2.0000      -4.672640      -127.1490
  28   2.0000      -4.672543      -127.1464
  29   2.0000      -4.670542      -127.0919
  30   2.0000      -4.670530      -127.0916
  31   2.0000      -3.691788      -100.4587
  32   2.0000      -2.049206       -55.7617
  33   2.0000      -2.038621       -55.4737
  34   2.0000      -2.031328       -55.2752
  35   2.0000      -1.108616       -30.1670
  36   2.0000      -1.008892       -27.4533
  37   2.0000      -0.777391       -21.1539
  38   2.0000      -0.774197       -21.0670
  39   2.0000      -0.736547       -20.0425
  40   2.0000      -0.713406       -19.4128
  41   2.0000      -0.707256       -19.2454
  42   2.0000      -0.700864       -19.0715
  43   2.0000      -0.699155       -19.0250
  44   2.0000      -0.693721       -18.8771
  45   2.0000      -0.692288       -18.8381
  46   2.0000      -0.577141       -15.7048
  47   2.0000      -0.553278       -15.0555
  48   2.0000      -0.542248       -14.7553
  49   2.0000      -0.518926       -14.1207
  50   2.0000      -0.477143       -12.9837
  51   2.0000      -0.461253       -12.5513
  52   2.0000      -0.453702       -12.3459
  53   2.0000      -0.450733       -12.2651
  54   2.0000      -0.448224       -12.1968
  55   2.0000      -0.438873       -11.9423
  56   2.0000      -0.436849       -11.8873
  57   2.0000      -0.434955       -11.8357
  58   2.0000      -0.430516       -11.7149
  59   2.0000      -0.430244       -11.7075
  60   2.0000      -0.421664       -11.4741
  61   2.0000      -0.412806       -11.2330
  62   2.0000      -0.408419       -11.1137
  63   2.0000      -0.406584       -11.0637
  64   2.0000      -0.405930       -11.0459
  65   2.0000      -0.401007       -10.9119
  66   2.0000      -0.391979       -10.6663
  67   2.0000      -0.391330       -10.6486
  68   2.0000      -0.367372        -9.9967
  69   2.0000      -0.363740        -9.8979
  70   2.0000      -0.354227        -9.6390
  71   2.0000      -0.353020        -9.6062
  72   2.0000      -0.348034        -9.4705
  73   2.0000      -0.346099        -9.4178
  74   2.0000      -0.339954        -9.2506
  75   2.0000      -0.315535        -8.5862
  76   2.0000      -0.310365        -8.4455
  77   2.0000      -0.303521        -8.2592
  78   2.0000      -0.294411        -8.0113
  79   2.0000      -0.290716        -7.9108
  80   2.0000      -0.269360        -7.3297
  81   2.0000      -0.243042        -6.6135
  82   2.0000      -0.241071        -6.5599
  83   2.0000      -0.228697        -6.2232
  84   2.0000      -0.228063        -6.2059
  85   2.0000      -0.206083        -5.6078
  86   0.0000      -0.042740        -1.1630
  87   0.0000      -0.039862        -1.0847
  88   0.0000      -0.032013        -0.8711
  89   0.0000      -0.026901        -0.7320
  90   0.0000      -0.015458        -0.4206

MULLIKEN ATOMIC CHARGES
-----------------------
   0 Ir:    0.886281
   1 P :    0.520395
   2 C :   -0.385096
   3 C :   -0.375827
   4 H :    0.094309
   5 H :    0.089883
   6 H :    0.131785
   7 H :    0.127442
   8 H :    0.155734
   9 H :    0.076128
  10 C :   -0.370000
  11 H :    0.093682
  12 H :    0.143338
  13 H :    0.137720
  14 P :    0.347464
  15 C :   -0.404512
  16 C :   -0.334773
  17 H :    0.094322
  18 H :    0.125541
  19 H :    0.086363
  20 C :   -0.328378
  21 H :    0.155929
  22 H :    0.079731
  23 H :    0.149709
  24 H :    0.159802
  25 H :    0.128608
  26 H :    0.088643
  27 C :    0.435444
  28 O :   -0.450829
  29 Cl:   -0.683804
  30 C :    0.652868
  31 O :   -0.719995
  32 Cl:   -0.655786
  33 C :   -0.494181
  34 H :    0.013266
  35 H :    0.105264
  36 H :    0.123529
Sum of atomic charges:   -0.0000000

LOEWDIN ATOMIC CHARGES
----------------------
   0 Ir:    0.525901
   1 P :    0.771391
   2 C :   -0.032871
   3 C :    0.009349
   4 H :   -0.043069
   5 H :   -0.047776
   6 H :   -0.043543
   7 H :   -0.068368
   8 H :   -0.043517
   9 H :   -0.043703
  10 C :    0.001101
  11 H :   -0.073614
  12 H :   -0.042886
  13 H :   -0.089546
  14 P :    0.766036
  15 C :   -0.011268
  16 C :   -0.036146
  17 H :   -0.058336
  18 H :   -0.043930
  19 H :   -0.042193
  20 C :    0.011466
  21 H :   -0.043358
  22 H :   -0.079745
  23 H :   -0.043654
  24 H :   -0.081505
  25 H :   -0.080227
  26 H :   -0.049500
  27 C :   -0.426280
  28 O :    0.120490
  29 Cl:   -0.099962
  30 C :   -0.550886
  31 O :   -0.027868
  32 Cl:    0.014171
  33 C :    0.093555
  34 H :   -0.008689
  35 H :   -0.034532
  36 H :   -0.066492

  Mayer bond orders larger than 0.100000
B(  0-Ir,  1-P ) :   0.5179 B(  0-Ir, 14-P ) :   0.6429 B(  0-Ir, 27-C ) :   1.1523
B(  0-Ir, 28-O ) :   0.1696 B(  0-Ir, 29-Cl) :   0.1522 B(  0-Ir, 30-C ) :   0.6760
B(  0-Ir, 31-O ) :   0.1669 B(  0-Ir, 32-Cl) :   0.1242 B(  0-Ir, 33-C ) :   0.2218
B(  1-P ,  2-C ) :   1.0761 B(  1-P ,  3-C ) :   0.9008 B(  1-P , 10-C ) :   0.9476
B(  1-P , 32-Cl) :   0.1945 B(  2-C ,  8-H ) :   0.9265 B(  2-C , 11-H ) :   0.9395
B(  2-C , 13-H ) :   0.9452 B(  3-C ,  4-H ) :   0.9638 B(  3-C ,  6-H ) :   0.9378
B(  3-C ,  9-H ) :   1.0010 B(  3-C , 10-C ) :   0.1119 B(  5-H , 10-C ) :   0.9988
B(  7-H , 10-C ) :   0.9542 B( 10-C , 12-H ) :   0.9366 B( 14-P , 15-C ) :   0.9343
B( 14-P , 16-C ) :   1.1033 B( 14-P , 20-C ) :   0.8692 B( 14-P , 29-Cl) :   0.2267
B( 14-P , 32-Cl) :   0.1776 B( 15-C , 20-C ) :   0.1010 B( 15-C , 23-H ) :   0.9354
B( 15-C , 24-H ) :   0.9602 B( 15-C , 26-H ) :   0.9802 B( 16-C , 21-H ) :   0.9350
B( 16-C , 22-H ) :   0.9439 B( 16-C , 25-H ) :   0.9487 B( 17-H , 20-C ) :   0.9759
B( 18-H , 20-C ) :   0.9382 B( 19-H , 20-C ) :   0.9821 B( 27-C , 28-O ) :   1.8219
B( 27-C , 30-C ) :   0.1487 B( 29-Cl, 30-C ) :   0.1033 B( 30-C , 31-O ) :   1.1647
B( 30-C , 33-C ) :   1.0003 B( 31-O , 33-C ) :   0.1103 B( 33-C , 34-H ) :   1.0394
B( 33-C , 35-H ) :   0.9219 B( 33-C , 36-H ) :   0.9922

Dispersion correction           -0.078173637
FINAL SINGLE POINT ENERGY     -2214.197812726666

DIPOLE MOMENT
-------------
                                X             Y             Z
Electronic contribution:      0.14846      -7.71499      12.07650
Nuclear contribution   :     -0.04564       8.50954     -11.91616
                        -----------------------------------------
Total Dipole Moment    :      0.10282       0.79454       0.16033
                        -----------------------------------------
Magnitude (a.u.)       :      0.81706
Magnitude (Debye)      :      2.07679

Rotational constants in cm-1:     0.013559     0.009254     0.008806
Rotational constants in MHz :   406.483484   277.425577   264.007304

                             ****ORCA TERMINATED NORMALLY****
TOTAL RUN TIME: 0 days 0 hours 17 minutes 3 seconds 998 msec
