                         Program Version 4.2.0 -  RELEASE  -
|  1> #
|  2> # MOR33_pr28 TPSSh-D3BJ/Def2-TZVPPD
|  3> #
|  4> ! tpssh d3bj def2-tzvppd def2/jk grid4 nofinalgrid
|  5>
|  6> *xyz 0 1
|  7> C        1.962238    1.228976    0.498763
|  8> C        1.599117    0.285883    1.541183
|  9> C        2.190996   -0.926462   -0.368778
| 10> C        2.300550    0.493131   -0.671789
| 11> C        2.081248    2.713946    0.664976
| 12> H        1.434728    3.080045    1.466376
| 13> H        1.821015    3.245065   -0.254703
| 14> H        3.112287    2.986784    0.927647
| 15> C        2.741378    1.051608   -1.988266
| 16> H        2.535990    2.123448   -2.051886
| 17> H        2.213045    0.558789   -2.809947
| 18> H        3.820515    0.902993   -2.128525
| 19> C        2.527241   -2.035347   -1.317221
| 20> H        3.613873   -2.134320   -1.446849
| 21> H        2.080344   -1.846887   -2.298459
| 22> H        2.144835   -2.993343   -0.953257
| 23> C        1.716574   -2.315630    1.788054
| 24> H        2.711935   -2.577282    2.171299
| 25> H        1.368788   -3.152284    1.175589
| 26> H        1.050088   -2.217418    2.648594
| 27> C        1.340513    0.619038    2.979845
| 28> H        2.276059    0.647386    3.557074
| 29> H        0.683714   -0.121696    3.445256
| 30> H        0.861589    1.596880    3.080055
| 31> Ru       0.207249   -0.005545   -0.119227
| 32> Cl      -0.429544   -0.245973   -2.480800
| 33> P       -1.456891    1.528216    0.068580
| 34> C       -1.650760    2.737817   -1.304822
| 35> H       -1.703179    2.179367   -2.242601
| 36> H       -0.763254    3.377318   -1.338338
| 37> H       -2.542801    3.360896   -1.175052
| 38> C       -1.549065    2.651656    1.528190
| 39> H       -2.472379    3.241595    1.506577
| 40> H       -0.697323    3.336564    1.527717
| 41> H       -1.520496    2.059136    2.446687
| 42> C       -3.144680    0.720288    0.161598
| 43> H       -3.432756    0.709722    1.219807
| 44> H       -3.887248    1.321720   -0.374189
| 45> C        1.787636   -1.042026    1.001372
| 46> P       -1.484414   -1.469966    0.216463
| 47> H       -2.382409   -3.625079   -0.568542
| 48> H       -0.624918   -3.689033   -0.270965
| 49> H       -1.236340   -2.863867   -1.723131
| 50> C       -3.065590   -0.710530   -0.380679
| 51> C       -1.439182   -3.076884   -0.670420
| 52> C       -1.931261   -2.000447    1.926464
| 53> H       -2.988264   -0.701756   -1.472521
| 54> H       -3.935017   -1.311110   -0.088429
| 55> H       -1.104361   -2.563780    2.366010
| 56> H       -2.827619   -2.630913    1.925421
| 57> H       -2.109292   -1.117280    2.546403
| 58> *
| 59>
| 60> %maxcore 5000
| 61>
| 62> %pal
| 63> nprocs = 24
| 64> end
| 65>
| 66>
| 67>                          ****END OF INPUT****

CARTESIAN COORDINATES (ANGSTROEM)
---------------------------------
  C      1.962238    1.228976    0.498763
  C      1.599117    0.285883    1.541183
  C      2.190996   -0.926462   -0.368778
  C      2.300550    0.493131   -0.671789
  C      2.081248    2.713946    0.664976
  H      1.434728    3.080045    1.466376
  H      1.821015    3.245065   -0.254703
  H      3.112287    2.986784    0.927647
  C      2.741378    1.051608   -1.988266
  H      2.535990    2.123448   -2.051886
  H      2.213045    0.558789   -2.809947
  H      3.820515    0.902993   -2.128525
  C      2.527241   -2.035347   -1.317221
  H      3.613873   -2.134320   -1.446849
  H      2.080344   -1.846887   -2.298459
  H      2.144835   -2.993343   -0.953257
  C      1.716574   -2.315630    1.788054
  H      2.711935   -2.577282    2.171299
  H      1.368788   -3.152284    1.175589
  H      1.050088   -2.217418    2.648594
  C      1.340513    0.619038    2.979845
  H      2.276059    0.647386    3.557074
  H      0.683714   -0.121696    3.445256
  H      0.861589    1.596880    3.080055
  Ru     0.207249   -0.005545   -0.119227
  Cl    -0.429544   -0.245973   -2.480800
  P     -1.456891    1.528216    0.068580
  C     -1.650760    2.737817   -1.304822
  H     -1.703179    2.179367   -2.242601
  H     -0.763254    3.377318   -1.338338
  H     -2.542801    3.360896   -1.175052
  C     -1.549065    2.651656    1.528190
  H     -2.472379    3.241595    1.506577
  H     -0.697323    3.336564    1.527717
  H     -1.520496    2.059136    2.446687
  C     -3.144680    0.720288    0.161598
  H     -3.432756    0.709722    1.219807
  H     -3.887248    1.321720   -0.374189
  C      1.787636   -1.042026    1.001372
  P     -1.484414   -1.469966    0.216463
  H     -2.382409   -3.625079   -0.568542
  H     -0.624918   -3.689033   -0.270965
  H     -1.236340   -2.863867   -1.723131
  C     -3.065590   -0.710530   -0.380679
  C     -1.439182   -3.076884   -0.670420
  C     -1.931261   -2.000447    1.926464
  H     -2.988264   -0.701756   -1.472521
  H     -3.935017   -1.311110   -0.088429
  H     -1.104361   -2.563780    2.366010
  H     -2.827619   -2.630913    1.925421
  H     -2.109292   -1.117280    2.546403

 Total Charge           Charge          ....    0
 Multiplicity           Mult            ....    1
 Number of Electrons    NEL             ....  190
 Basis Dimension        Dim             .... 1322

ORBITAL ENERGIES
----------------

  NO   OCC          E(Eh)            E(eV)
   0   2.0000    -101.278674     -2755.9328
   1   2.0000     -76.932934     -2093.4516
   2   2.0000     -76.932659     -2093.4441
   3   2.0000     -10.127349      -275.5792
   4   2.0000     -10.124243      -275.4946
   5   2.0000     -10.120434      -275.3910
   6   2.0000     -10.119779      -275.3732
   7   2.0000     -10.118498      -275.3383
   8   2.0000     -10.114494      -275.2294
   9   2.0000     -10.114244      -275.2226
  10   2.0000     -10.114136      -275.2196
  11   2.0000     -10.113675      -275.2071
  12   2.0000     -10.113137      -275.1925
  13   2.0000     -10.112818      -275.1838
  14   2.0000     -10.111705      -275.1535
  15   2.0000     -10.104494      -274.9573
  16   2.0000     -10.100875      -274.8588
  17   2.0000     -10.098468      -274.7933
  18   2.0000     -10.096228      -274.7323
  19   2.0000      -9.279401      -252.5053
  20   2.0000      -7.024154      -191.1370
  21   2.0000      -7.019724      -191.0164
  22   2.0000      -7.019541      -191.0114
  23   2.0000      -6.485534      -176.4803
  24   2.0000      -6.485513      -176.4798
  25   2.0000      -4.635249      -126.1315
  26   2.0000      -4.635177      -126.1296
  27   2.0000      -4.634797      -126.1192
  28   2.0000      -4.634760      -126.1182
  29   2.0000      -4.631549      -126.0308
  30   2.0000      -4.631498      -126.0295
  31   2.0000      -2.935280       -79.8730
  32   2.0000      -1.806872       -49.1675
  33   2.0000      -1.783194       -48.5232
  34   2.0000      -1.781787       -48.4849
  35   2.0000      -0.858944       -23.3730
  36   2.0000      -0.775345       -21.0982
  37   2.0000      -0.755789       -20.5661
  38   2.0000      -0.749921       -20.4064
  39   2.0000      -0.734834       -19.9958
  40   2.0000      -0.707615       -19.2552
  41   2.0000      -0.699927       -19.0460
  42   2.0000      -0.692331       -18.8393
  43   2.0000      -0.690398       -18.7867
  44   2.0000      -0.686009       -18.6673
  45   2.0000      -0.675130       -18.3712
  46   2.0000      -0.672120       -18.2893
  47   2.0000      -0.611910       -16.6509
  48   2.0000      -0.601944       -16.3797
  49   2.0000      -0.594965       -16.1898
  50   2.0000      -0.540340       -14.7034
  51   2.0000      -0.504258       -13.7216
  52   2.0000      -0.492832       -13.4106
  53   2.0000      -0.491868       -13.3844
  54   2.0000      -0.448046       -12.1920
  55   2.0000      -0.444446       -12.0940
  56   2.0000      -0.436848       -11.8872
  57   2.0000      -0.431596       -11.7443
  58   2.0000      -0.419279       -11.4092
  59   2.0000      -0.414455       -11.2779
  60   2.0000      -0.412983       -11.2378
  61   2.0000      -0.409219       -11.1354
  62   2.0000      -0.407366       -11.0850
  63   2.0000      -0.403449       -10.9784
  64   2.0000      -0.399187       -10.8624
  65   2.0000      -0.396268       -10.7830
  66   2.0000      -0.394099       -10.7240
  67   2.0000      -0.388957       -10.5841
  68   2.0000      -0.387975       -10.5573
  69   2.0000      -0.384439       -10.4611
  70   2.0000      -0.380911       -10.3651
  71   2.0000      -0.376934       -10.2569
  72   2.0000      -0.374570       -10.1926
  73   2.0000      -0.372834       -10.1453
  74   2.0000      -0.359887        -9.7930
  75   2.0000      -0.356712        -9.7066
  76   2.0000      -0.354315        -9.6414
  77   2.0000      -0.353303        -9.6139
  78   2.0000      -0.329745        -8.9728
  79   2.0000      -0.323211        -8.7950
  80   2.0000      -0.319012        -8.6808
  81   2.0000      -0.315196        -8.5769
  82   2.0000      -0.313386        -8.5277
  83   2.0000      -0.308679        -8.3996
  84   2.0000      -0.298877        -8.1328
  85   2.0000      -0.280753        -7.6397
  86   2.0000      -0.280349        -7.6287
  87   2.0000      -0.273835        -7.4514
  88   2.0000      -0.246123        -6.6973
  89   2.0000      -0.239937        -6.5290
  90   2.0000      -0.224377        -6.1056
  91   2.0000      -0.221598        -6.0300
  92   2.0000      -0.189472        -5.1558
  93   2.0000      -0.171070        -4.6551
  94   2.0000      -0.157122        -4.2755
  95   0.0000      -0.020593        -0.5604
  96   0.0000      -0.007311        -0.1989
  97   0.0000      -0.006159        -0.1676
  98   0.0000       0.007004         0.1906
  99   0.0000       0.010095         0.2747

MULLIKEN ATOMIC CHARGES
-----------------------
   0 C :    0.225896
   1 C :    0.620706
   2 C :    0.443758
   3 C :    0.711348
   4 C :   -0.310313
   5 H :   -0.000876
   6 H :    0.146257
   7 H :    0.018765
   8 C :   -0.559268
   9 H :    0.047868
  10 H :    0.069094
  11 H :    0.081913
  12 C :   -0.730535
  13 H :    0.075723
  14 H :    0.086966
  15 H :    0.056415
  16 C :   -0.296177
  17 H :    0.007481
  18 H :    0.133272
  19 H :    0.059321
  20 C :   -0.608487
  21 H :    0.014428
  22 H :    0.101122
  23 H :    0.093533
  24 Ru:   -1.964826
  25 Cl:   -0.636236
  26 P :    1.291920
  27 C :   -0.701392
  28 H :    0.095244
  29 H :    0.115657
  30 H :    0.176572
  31 C :   -0.670837
  32 H :    0.124126
  33 H :    0.111829
  34 H :    0.116999
  35 C :   -0.217560
  36 H :    0.155424
  37 H :    0.159863
  38 C :    0.365957
  39 P :    1.097309
  40 H :    0.151150
  41 H :    0.120736
  42 H :    0.100513
  43 C :    0.044537
  44 C :   -0.575973
  45 C :   -0.663704
  46 H :    0.196349
  47 H :    0.136163
  48 H :    0.137132
  49 H :    0.137530
  50 H :    0.107310
Sum of atomic charges:   -0.0000000

LOEWDIN ATOMIC CHARGES
----------------------
   0 C :   -0.243860
   1 C :   -0.260952
   2 C :   -0.262739
   3 C :   -0.260006
   4 C :    0.170928
   5 H :   -0.037398
   6 H :   -0.017682
   7 H :    0.003074
   8 C :    0.160617
   9 H :   -0.017961
  10 H :   -0.049893
  11 H :   -0.000404
  12 C :    0.165567
  13 H :   -0.003083
  14 H :   -0.031798
  15 H :   -0.020954
  16 C :    0.168006
  17 H :    0.004183
  18 H :   -0.023954
  19 H :   -0.032142
  20 C :    0.167640
  21 H :   -0.000168
  22 H :   -0.019150
  23 H :   -0.029607
  24 Ru:    0.491644
  25 Cl:    0.004871
  26 P :    0.813757
  27 C :   -0.025256
  28 H :   -0.098024
  29 H :   -0.059537
  30 H :   -0.054093
  31 C :   -0.009319
  32 H :   -0.048866
  33 H :   -0.072130
  34 H :   -0.060745
  35 C :   -0.196083
  36 H :   -0.032825
  37 H :   -0.022902
  38 C :   -0.258933
  39 P :    0.788873
  40 H :   -0.050584
  41 H :   -0.064405
  42 H :   -0.084585
  43 C :   -0.224288
  44 C :   -0.010144
  45 C :    0.006242
  46 H :   -0.056080
  47 H :   -0.021671
  48 H :   -0.073632
  49 H :   -0.050236
  50 H :   -0.059310

  Mayer bond orders larger than 0.100000
B(  0-C ,  1-C ) :  -0.2935 B(  0-C ,  2-C ) :  -0.2863 B(  0-C ,  3-C ) :   0.3231
B(  0-C ,  4-C ) :   1.0842 B(  0-C ,  8-C ) :  -0.1601 B(  0-C , 12-C ) :   0.1286
B(  0-C , 24-Ru) :   0.9435 B(  0-C , 38-C ) :   0.1634 B(  1-C ,  2-C ) :  -0.2626
B(  1-C ,  3-C ) :  -0.1162 B(  1-C ,  4-C ) :  -0.1514 B(  1-C , 20-C ) :   1.0915
B(  1-C , 22-H ) :  -0.1236 B(  1-C , 23-H ) :  -0.1112 B(  1-C , 24-Ru) :   0.1545
B(  1-C , 26-P ) :   0.3176 B(  1-C , 39-P ) :   0.1468 B(  2-C ,  3-C ) :   0.5750
B(  2-C ,  8-C ) :  -0.1670 B(  2-C , 12-C ) :   1.4064 B(  2-C , 24-Ru) :   0.1954
B(  2-C , 25-Cl) :  -0.2191 B(  2-C , 38-C ) :   0.2902 B(  2-C , 39-P ) :   0.1068
B(  3-C ,  8-C ) :   1.2966 B(  3-C , 12-C ) :  -0.2573 B(  3-C , 14-H ) :   0.1259
B(  3-C , 38-C ) :  -0.2519 B(  4-C ,  5-H ) :   1.0113 B(  4-C ,  6-H ) :   0.9155
B(  4-C ,  7-H ) :   0.9323 B(  4-C ,  8-C ) :   0.1027 B(  4-C , 20-C ) :   0.1410
B(  8-C ,  9-H ) :   0.9510 B(  8-C , 10-H ) :   0.8891 B(  8-C , 11-H ) :   0.9111
B(  8-C , 12-C ) :   0.3423 B(  8-C , 24-Ru) :   0.2838 B(  8-C , 38-C ) :   0.1451
B( 12-C , 13-H ) :   0.8909 B( 12-C , 14-H ) :   0.8868 B( 12-C , 15-H ) :   0.9961
B( 12-C , 16-C ) :   0.1055 B( 12-C , 24-Ru) :   0.4499 B( 12-C , 38-C ) :  -0.3356
B( 16-C , 17-H ) :   0.9387 B( 16-C , 18-H ) :   0.9483 B( 16-C , 19-H ) :   0.9631
B( 16-C , 20-C ) :   0.1266 B( 16-C , 38-C ) :   0.9889 B( 20-C , 21-H ) :   0.8881
B( 20-C , 22-H ) :   0.9874 B( 20-C , 23-H ) :   0.9845 B( 20-C , 24-Ru) :   0.1435
B( 20-C , 38-C ) :  -0.1654 B( 24-Ru, 25-Cl) :   0.8718 B( 24-Ru, 26-P ) :   0.8878
B( 24-Ru, 27-C ) :   0.2234 B( 24-Ru, 31-C ) :   0.1914 B( 24-Ru, 38-C ) :   1.0413
B( 24-Ru, 39-P ) :   0.8735 B( 24-Ru, 43-C ) :   0.1102 B( 24-Ru, 44-C ) :   0.1542
B( 24-Ru, 45-C ) :   0.2274 B( 25-Cl, 26-P ) :  -0.2771 B( 26-P , 27-C ) :   0.9221
B( 26-P , 31-C ) :   0.8149 B( 26-P , 35-C ) :   0.5801 B( 26-P , 39-P ) :  -0.2549
B( 26-P , 43-C ) :   0.2028 B( 27-C , 28-H ) :   0.9866 B( 27-C , 29-H ) :   0.9897
B( 27-C , 30-H ) :   0.9405 B( 27-C , 31-C ) :   0.1684 B( 27-C , 35-C ) :   0.1314
B( 31-C , 32-H ) :   1.0044 B( 31-C , 33-H ) :   0.9685 B( 31-C , 34-H ) :   0.9962
B( 31-C , 35-C ) :   0.1757 B( 35-C , 36-H ) :   0.9150 B( 35-C , 37-H ) :   0.8681
B( 35-C , 39-P ) :   0.5199 B( 35-C , 43-C ) :   1.0174 B( 38-C , 45-C ) :   0.1055
B( 39-P , 43-C ) :   0.3128 B( 39-P , 44-C ) :   0.9761 B( 39-P , 45-C ) :   0.7859
B( 40-H , 44-C ) :   0.9422 B( 41-H , 44-C ) :   0.9786 B( 42-H , 44-C ) :   0.9306
B( 43-C , 45-C ) :   0.1595 B( 43-C , 46-H ) :   0.9198 B( 43-C , 47-H ) :   0.9065
B( 44-C , 45-C ) :   0.1372 B( 45-C , 48-H ) :   0.9993 B( 45-C , 49-H ) :   0.9680
B( 45-C , 50-H ) :   0.9951

Dispersion correction           -0.104152010
FINAL SINGLE POINT ENERGY     -1866.855499182850

DIPOLE MOMENT
-------------
                                X             Y             Z
Electronic contribution:     12.09387      -1.44413     -17.75171
Nuclear contribution   :    -12.48154       1.60484      19.54441
                        -----------------------------------------
Total Dipole Moment    :     -0.38767       0.16071       1.79270
                        -----------------------------------------
Magnitude (a.u.)       :      1.84116
Magnitude (Debye)      :      4.67986

Rotational constants in cm-1:     0.010225     0.008868     0.007900
Rotational constants in MHz :   306.523373   265.843264   236.824033

                             ****ORCA TERMINATED NORMALLY****
TOTAL RUN TIME: 0 days 0 hours 41 minutes 38 seconds 296 msec
