                         Program Version 4.2.0 -  RELEASE  -
|  1> #
|  2> # MOR30_pr12 TPSSh-D3BJ/Def2-TZVPPD
|  3> #
|  4> ! tpssh d3bj def2-tzvppd def2/jk grid4 nofinalgrid
|  5>
|  6> *xyz 0 1
|  7> Cr      -0.000015    0.000077   -0.030936
|  8> O       -3.048010    0.000059    0.176284
|  9> C       -1.899390    0.000055    0.076972
| 10> C        0.001618   -0.001981    1.838499
| 11> O        0.002800   -0.003409    2.993522
| 12> C        1.899510    0.000027    0.074271
| 13> O        3.048267   -0.000019    0.172029
| 14> C       -0.000196    1.904845   -0.051611
| 15> O       -0.000396    3.057825   -0.041163
| 16> C       -0.000244   -1.904616   -0.055186
| 17> O       -0.000506   -3.057616   -0.046760
| 18> C       -0.692601    0.002127   -2.246320
| 19> H       -1.244106   -0.917771   -2.406195
| 20> H       -1.243862    0.922423   -2.404834
| 21> C        0.689570    0.001986   -2.247230
| 22> H        1.240812    0.922165   -2.406446
| 23> H        1.240675   -0.918028   -2.407739
| 24> *
| 25>
| 26> %maxcore 5000
| 27>
| 28> %pal
| 29> nprocs = 24
| 30> end
| 31>
| 32>
| 33>                          ****END OF INPUT****

CARTESIAN COORDINATES (ANGSTROEM)
---------------------------------
  Cr    -0.000015    0.000077   -0.030936
  O     -3.048010    0.000059    0.176284
  C     -1.899390    0.000055    0.076972
  C      0.001618   -0.001981    1.838499
  O      0.002800   -0.003409    2.993522
  C      1.899510    0.000027    0.074271
  O      3.048267   -0.000019    0.172029
  C     -0.000196    1.904845   -0.051611
  O     -0.000396    3.057825   -0.041163
  C     -0.000244   -1.904616   -0.055186
  O     -0.000506   -3.057616   -0.046760
  C     -0.692601    0.002127   -2.246320
  H     -1.244106   -0.917771   -2.406195
  H     -1.243862    0.922423   -2.404834
  C      0.689570    0.001986   -2.247230
  H      1.240812    0.922165   -2.406446
  H      1.240675   -0.918028   -2.407739

 Total Charge           Charge          ....    0
 Multiplicity           Mult            ....    1
 Number of Electrons    NEL             ....  110
 Basis Dimension        Dim             ....  594

ORBITAL ENERGIES
----------------

  NO   OCC          E(Eh)            E(eV)
   0   2.0000    -215.547791     -5865.3536
   1   2.0000     -24.611930      -669.7247
   2   2.0000     -20.880321      -568.1824
   3   2.0000     -20.878514      -568.1332
   4   2.0000     -20.878060      -568.1209
   5   2.0000     -19.139383      -520.8091
   6   2.0000     -19.139379      -520.8090
   7   2.0000     -19.137152      -520.7484
   8   2.0000     -19.137152      -520.7484
   9   2.0000     -19.127928      -520.4974
  10   2.0000     -10.234245      -278.4880
  11   2.0000     -10.234243      -278.4879
  12   2.0000     -10.230811      -278.3945
  13   2.0000     -10.230806      -278.3944
  14   2.0000     -10.226905      -278.2882
  15   2.0000     -10.159465      -276.4531
  16   2.0000     -10.158936      -276.4387
  17   2.0000      -2.850723       -77.5721
  18   2.0000      -1.804386       -49.0998
  19   2.0000      -1.800390       -48.9911
  20   2.0000      -1.800063       -48.9822
  21   2.0000      -1.115182       -30.3457
  22   2.0000      -1.114861       -30.3369
  23   2.0000      -1.113874       -30.3101
  24   2.0000      -1.113761       -30.3070
  25   2.0000      -1.104050       -30.0427
  26   2.0000      -0.784330       -21.3427
  27   2.0000      -0.611682       -16.6447
  28   2.0000      -0.590669       -16.0729
  29   2.0000      -0.553672       -15.0662
  30   2.0000      -0.549963       -14.9653
  31   2.0000      -0.549239       -14.9455
  32   2.0000      -0.543620       -14.7926
  33   2.0000      -0.494774       -13.4635
  34   2.0000      -0.476881       -12.9766
  35   2.0000      -0.460889       -12.5414
  36   2.0000      -0.458865       -12.4863
  37   2.0000      -0.457837       -12.4584
  38   2.0000      -0.456083       -12.4107
  39   2.0000      -0.447319       -12.1722
  40   2.0000      -0.444574       -12.0975
  41   2.0000      -0.442578       -12.0432
  42   2.0000      -0.435654       -11.8547
  43   2.0000      -0.433505       -11.7963
  44   2.0000      -0.430573       -11.7165
  45   2.0000      -0.430350       -11.7104
  46   2.0000      -0.426889       -11.6162
  47   2.0000      -0.407626       -11.0921
  48   2.0000      -0.395433       -10.7603
  49   2.0000      -0.392375       -10.6771
  50   2.0000      -0.381661       -10.3855
  51   2.0000      -0.318811        -8.6753
  52   2.0000      -0.241927        -6.5832
  53   2.0000      -0.239477        -6.5165
  54   2.0000      -0.228783        -6.2255
  55   0.0000      -0.070953        -1.9307
  56   0.0000      -0.062460        -1.6996
  57   0.0000      -0.057779        -1.5722
  58   0.0000      -0.049023        -1.3340
  59   0.0000      -0.046870        -1.2754

MULLIKEN ATOMIC CHARGES
-----------------------
   0 Cr:   -1.541119
   1 O :   -0.356441
   2 C :    0.595531
   3 C :    0.643365
   4 O :   -0.357002
   5 C :    0.595467
   6 O :   -0.356457
   7 C :    0.625267
   8 O :   -0.348332
   9 C :    0.624414
  10 O :   -0.348198
  11 C :   -0.095721
  12 H :    0.103804
  13 H :    0.103674
  14 C :   -0.095861
  15 H :    0.103736
  16 H :    0.103873
Sum of atomic charges:   -0.0000000

LOEWDIN ATOMIC CHARGES
----------------------
   0 Cr:   -0.364337
   1 O :    0.157621
   2 C :   -0.113001
   3 C :   -0.125378
   4 O :    0.149948
   5 C :   -0.113013
   6 O :    0.157623
   7 C :   -0.082893
   8 O :    0.153941
   9 C :   -0.082931
  10 O :    0.153948
  11 C :    0.082172
  12 H :   -0.013974
  13 H :   -0.013951
  14 C :    0.082160
  15 H :   -0.013952
  16 H :   -0.013983

  Mayer bond orders larger than 0.100000
B(  0-Cr,  1-O ) :   0.2139 B(  0-Cr,  2-C ) :   0.9751 B(  0-Cr,  3-C ) :   1.1714
B(  0-Cr,  4-O ) :   0.2334 B(  0-Cr,  5-C ) :   0.9747 B(  0-Cr,  6-O ) :   0.2139
B(  0-Cr,  7-C ) :   1.0027 B(  0-Cr,  8-O ) :   0.2689 B(  0-Cr,  9-C ) :   1.0022
B(  0-Cr, 10-O ) :   0.2687 B(  0-Cr, 11-C ) :   0.2849 B(  0-Cr, 14-C ) :   0.2851
B(  1-O ,  2-C ) :   1.8675 B(  3-C ,  4-O ) :   1.8978 B(  5-C ,  6-O ) :   1.8675
B(  7-C ,  8-O ) :   1.8444 B(  9-C , 10-O ) :   1.8445 B( 11-C , 12-H ) :   1.0746
B( 11-C , 13-H ) :   1.0747 B( 11-C , 14-C ) :   1.1861 B( 14-C , 15-H ) :   1.0746
B( 14-C , 16-H ) :   1.0747

Dispersion correction           -0.028171474
FINAL SINGLE POINT ENERGY     -1690.182463905009

DIPOLE MOMENT
-------------
                                X             Y             Z
Electronic contribution:      0.00523      -0.00678       7.74282
Nuclear contribution   :     -0.00600       0.00791      -8.87043
                        -----------------------------------------
Total Dipole Moment    :     -0.00076       0.00114      -1.12761
                        -----------------------------------------
Magnitude (a.u.)       :      1.12761
Magnitude (Debye)      :      2.86615

Rotational constants in cm-1:     0.023439     0.023057     0.021301
Rotational constants in MHz :   702.695821   691.231713   638.589543

                             ****ORCA TERMINATED NORMALLY****
TOTAL RUN TIME: 0 days 0 hours 3 minutes 1 seconds 990 msec
