                         Program Version 4.2.0 -  RELEASE  -
|  1> #
|  2> # MOR34_pr35 TPSSh-D3BJ/Def2-TZVPPD
|  3> #
|  4> ! tpssh d3bj def2-tzvppd def2/jk grid4 nofinalgrid
|  5>
|  6> *xyz 0 1
|  7> Ru       0.569145    0.005836    0.165179
|  8> Se      -1.577691    0.219302   -1.256403
|  9> P        2.150844   -0.339975    1.751510
| 10> P        1.960774    0.268717   -1.689611
| 11> P        0.209152    2.312844    0.427199
| 12> P        0.201777   -2.273734   -0.170115
| 13> C       -3.165297    0.017396   -0.190307
| 14> C       -4.394132    0.053132   -0.874133
| 15> C       -5.595730   -0.078160   -0.183035
| 16> C       -5.602894   -0.248979    1.204636
| 17> C       -4.386994   -0.285335    1.887322
| 18> C       -3.179536   -0.153593    1.200055
| 19> C        2.835775    1.024261    2.797241
| 20> C        3.776990   -1.134294    1.350685
| 21> C        1.582544   -1.410719    3.147602
| 22> C        1.189258    0.640725   -3.324662
| 23> C        3.233820    1.610023   -1.608962
| 24> C        3.088037   -1.102636   -2.218553
| 25> C       -1.285561    2.723129    1.411363
| 26> C        1.411100    3.483245    1.220886
| 27> C       -0.106458    3.317190   -1.091179
| 28> C       -1.203048   -2.960414    0.792609
| 29> C        1.495583   -3.557062    0.180127
| 30> C       -0.249251   -2.863510   -1.860160
| 31> H       -0.380046   -0.139952    1.501494
| 32> H       -4.399385    0.184833   -1.953205
| 33> H       -6.533440   -0.047821   -0.732848
| 34> H       -6.541373   -0.352173    1.741881
| 35> H       -4.372710   -0.417664    2.966984
| 36> H       -2.231572   -0.183831    1.730627
| 37> H        2.021868    1.525326    3.326216
| 38> H        3.360848    1.757391    2.181578
| 39> H        3.533951    0.611895    3.534364
| 40> H        4.357450   -0.458164    0.715432
| 41> H        3.629968   -2.070962    0.811827
| 42> H        4.349762   -1.333108    2.263576
| 43> H        0.778593   -0.879257    3.663997
| 44> H        2.395525   -1.623101    3.851423
| 45> H        1.170731   -2.350778    2.777081
| 46> H        1.942377    0.770617   -4.110078
| 47> H        0.580686    1.544719   -3.247034
| 48> H        0.519142   -0.181425   -3.592607
| 49> H        3.848415    1.640003   -2.515852
| 50> H        3.881269    1.436754   -0.744032
| 51> H        2.749674    2.580347   -1.477575
| 52> H        3.680607   -0.803573   -3.090502
| 53> H        2.506614   -1.989838   -2.479223
| 54> H        3.765021   -1.364235   -1.402566
| 55> H       -1.422862    3.807855    1.484184
| 56> H       -1.180491    2.295670    2.412101
| 57> H       -2.158099    2.270920    0.935224
| 58> H        1.060677    4.511234    1.077988
| 59> H        2.402787    3.383240    0.772277
| 60> H        1.491749    3.290644    2.291344
| 61> H       -0.430215    4.323980   -0.805953
| 62> H       -0.883917    2.832935   -1.685612
| 63> H        0.806667    3.401312   -1.686904
| 64> H       -1.338643   -4.028887    0.591012
| 65> H       -2.108817   -2.414477    0.518490
| 66> H       -1.024200   -2.804556    1.859563
| 67> H        1.083825   -4.556345    0.001539
| 68> H        1.848365   -3.505467    1.212021
| 69> H        2.350340   -3.408454   -0.485526
| 70> H       -0.446095   -3.940916   -1.837012
| 71> H        0.566038   -2.668527   -2.561627
| 72> H       -1.135395   -2.323383   -2.198214
| 73> *
| 74>
| 75> %maxcore 5000
| 76>
| 77> %pal
| 78> nprocs = 24
| 79> end
| 80>
| 81>
| 82>                          ****END OF INPUT****

CARTESIAN COORDINATES (ANGSTROEM)
---------------------------------
  Ru     0.569145    0.005836    0.165179
  Se    -1.577691    0.219302   -1.256403
  P      2.150844   -0.339975    1.751510
  P      1.960774    0.268717   -1.689611
  P      0.209152    2.312844    0.427199
  P      0.201777   -2.273734   -0.170115
  C     -3.165297    0.017396   -0.190307
  C     -4.394132    0.053132   -0.874133
  C     -5.595730   -0.078160   -0.183035
  C     -5.602894   -0.248979    1.204636
  C     -4.386994   -0.285335    1.887322
  C     -3.179536   -0.153593    1.200055
  C      2.835775    1.024261    2.797241
  C      3.776990   -1.134294    1.350685
  C      1.582544   -1.410719    3.147602
  C      1.189258    0.640725   -3.324662
  C      3.233820    1.610023   -1.608962
  C      3.088037   -1.102636   -2.218553
  C     -1.285561    2.723129    1.411363
  C      1.411100    3.483245    1.220886
  C     -0.106458    3.317190   -1.091179
  C     -1.203048   -2.960414    0.792609
  C      1.495583   -3.557062    0.180127
  C     -0.249251   -2.863510   -1.860160
  H     -0.380046   -0.139952    1.501494
  H     -4.399385    0.184833   -1.953205
  H     -6.533440   -0.047821   -0.732848
  H     -6.541373   -0.352173    1.741881
  H     -4.372710   -0.417664    2.966984
  H     -2.231572   -0.183831    1.730627
  H      2.021868    1.525326    3.326216
  H      3.360848    1.757391    2.181578
  H      3.533951    0.611895    3.534364
  H      4.357450   -0.458164    0.715432
  H      3.629968   -2.070962    0.811827
  H      4.349762   -1.333108    2.263576
  H      0.778593   -0.879257    3.663997
  H      2.395525   -1.623101    3.851423
  H      1.170731   -2.350778    2.777081
  H      1.942377    0.770617   -4.110078
  H      0.580686    1.544719   -3.247034
  H      0.519142   -0.181425   -3.592607
  H      3.848415    1.640003   -2.515852
  H      3.881269    1.436754   -0.744032
  H      2.749674    2.580347   -1.477575
  H      3.680607   -0.803573   -3.090502
  H      2.506614   -1.989838   -2.479223
  H      3.765021   -1.364235   -1.402566
  H     -1.422862    3.807855    1.484184
  H     -1.180491    2.295670    2.412101
  H     -2.158099    2.270920    0.935224
  H      1.060677    4.511234    1.077988
  H      2.402787    3.383240    0.772277
  H      1.491749    3.290644    2.291344
  H     -0.430215    4.323980   -0.805953
  H     -0.883917    2.832935   -1.685612
  H      0.806667    3.401312   -1.686904
  H     -1.338643   -4.028887    0.591012
  H     -2.108817   -2.414477    0.518490
  H     -1.024200   -2.804556    1.859563
  H      1.083825   -4.556345    0.001539
  H      1.848365   -3.505467    1.212021
  H      2.350340   -3.408454   -0.485526
  H     -0.446095   -3.940916   -1.837012
  H      0.566038   -2.668527   -2.561627
  H     -1.135395   -2.323383   -2.198214

 Total Charge           Charge          ....    0
 Multiplicity           Mult            ....    1
 Number of Electrons    NEL             ....  260
 Basis Dimension        Dim             .... 1685

ORBITAL ENERGIES
----------------

  NO   OCC          E(Eh)            E(eV)
   0   2.0000    -453.536659    -12341.3599
   1   2.0000     -76.940007     -2093.6440
   2   2.0000     -76.933496     -2093.4668
   3   2.0000     -76.933461     -2093.4659
   4   2.0000     -76.931385     -2093.4094
   5   2.0000     -57.789555     -1572.5337
   6   2.0000     -51.813466     -1409.9161
   7   2.0000     -51.811627     -1409.8660
   8   2.0000     -51.810404     -1409.8328
   9   2.0000     -10.114133      -275.2195
  10   2.0000     -10.113961      -275.2149
  11   2.0000     -10.112924      -275.1866
  12   2.0000     -10.112593      -275.1776
  13   2.0000     -10.112265      -275.1687
  14   2.0000     -10.111427      -275.1459
  15   2.0000     -10.109286      -275.0877
  16   2.0000     -10.108127      -275.0561
  17   2.0000     -10.104500      -274.9574
  18   2.0000     -10.099839      -274.8306
  19   2.0000     -10.099628      -274.8249
  20   2.0000     -10.098025      -274.7812
  21   2.0000     -10.095883      -274.7229
  22   2.0000     -10.093643      -274.6620
  23   2.0000     -10.093477      -274.6575
  24   2.0000     -10.090019      -274.5634
  25   2.0000     -10.089429      -274.5473
  26   2.0000     -10.084961      -274.4257
  27   2.0000      -7.674447      -208.8323
  28   2.0000      -6.491206      -176.6347
  29   2.0000      -6.485576      -176.4815
  30   2.0000      -6.485515      -176.4798
  31   2.0000      -6.483475      -176.4243
  32   2.0000      -5.612893      -152.7346
  33   2.0000      -5.606854      -152.5703
  34   2.0000      -5.603083      -152.4677
  35   2.0000      -4.640989      -126.2877
  36   2.0000      -4.640808      -126.2828
  37   2.0000      -4.637109      -126.1821
  38   2.0000      -4.635416      -126.1361
  39   2.0000      -4.635378      -126.1350
  40   2.0000      -4.635136      -126.1284
  41   2.0000      -4.634807      -126.1195
  42   2.0000      -4.633355      -126.0800
  43   2.0000      -4.632783      -126.0644
  44   2.0000      -4.631409      -126.0270
  45   2.0000      -4.631220      -126.0219
  46   2.0000      -4.629343      -125.9708
  47   2.0000      -2.929202       -79.7076
  48   2.0000      -1.975118       -53.7457
  49   2.0000      -1.973952       -53.7140
  50   2.0000      -1.970869       -53.6301
  51   2.0000      -1.966067       -53.4994
  52   2.0000      -1.965786       -53.4918
  53   2.0000      -1.785623       -48.5893
  54   2.0000      -1.783996       -48.5450
  55   2.0000      -1.780222       -48.4423
  56   2.0000      -0.808348       -21.9963
  57   2.0000      -0.755015       -20.5450
  58   2.0000      -0.747971       -20.3533
  59   2.0000      -0.743534       -20.2326
  60   2.0000      -0.741452       -20.1759
  61   2.0000      -0.709517       -19.3069
  62   2.0000      -0.700665       -19.0661
  63   2.0000      -0.682269       -18.5655
  64   2.0000      -0.678740       -18.4694
  65   2.0000      -0.678501       -18.4630
  66   2.0000      -0.674223       -18.3465
  67   2.0000      -0.671687       -18.2775
  68   2.0000      -0.667013       -18.1503
  69   2.0000      -0.665445       -18.1077
  70   2.0000      -0.664526       -18.0827
  71   2.0000      -0.606587       -16.5061
  72   2.0000      -0.560757       -15.2590
  73   2.0000      -0.538687       -14.6584
  74   2.0000      -0.530793       -14.4436
  75   2.0000      -0.522060       -14.2060
  76   2.0000      -0.516365       -14.0510
  77   2.0000      -0.513647       -13.9770
  78   2.0000      -0.466941       -12.7061
  79   2.0000      -0.448316       -12.1993
  80   2.0000      -0.437539       -11.9060
  81   2.0000      -0.434969       -11.8361
  82   2.0000      -0.429787       -11.6951
  83   2.0000      -0.427711       -11.6386
  84   2.0000      -0.421305       -11.4643
  85   2.0000      -0.417851       -11.3703
  86   2.0000      -0.414980       -11.2922
  87   2.0000      -0.411896       -11.2082
  88   2.0000      -0.409405       -11.1405
  89   2.0000      -0.406827       -11.0703
  90   2.0000      -0.405157       -11.0249
  91   2.0000      -0.404307       -11.0018
  92   2.0000      -0.399694       -10.8762
  93   2.0000      -0.391979       -10.6663
  94   2.0000      -0.389644       -10.6027
  95   2.0000      -0.388098       -10.5607
  96   2.0000      -0.385702       -10.4955
  97   2.0000      -0.382347       -10.4042
  98   2.0000      -0.379248       -10.3199
  99   2.0000      -0.378343       -10.2952
 100   2.0000      -0.376689       -10.2502
 101   2.0000      -0.375055       -10.2058
 102   2.0000      -0.373729       -10.1697
 103   2.0000      -0.372343       -10.1320
 104   2.0000      -0.366403        -9.9703
 105   2.0000      -0.365004        -9.9323
 106   2.0000      -0.350260        -9.5311
 107   2.0000      -0.334058        -9.0902
 108   2.0000      -0.328958        -8.9514
 109   2.0000      -0.326481        -8.8840
 110   2.0000      -0.325617        -8.8605
 111   2.0000      -0.320371        -8.7177
 112   2.0000      -0.317424        -8.6375
 113   2.0000      -0.313129        -8.5207
 114   2.0000      -0.310344        -8.4449
 115   2.0000      -0.309120        -8.4116
 116   2.0000      -0.306213        -8.3325
 117   2.0000      -0.305395        -8.3102
 118   2.0000      -0.299397        -8.1470
 119   2.0000      -0.293496        -7.9864
 120   2.0000      -0.271654        -7.3921
 121   2.0000      -0.253802        -6.9063
 122   2.0000      -0.234702        -6.3866
 123   2.0000      -0.222577        -6.0566
 124   2.0000      -0.220523        -6.0007
 125   2.0000      -0.214610        -5.8398
 126   2.0000      -0.203101        -5.5267
 127   2.0000      -0.193672        -5.2701
 128   2.0000      -0.180316        -4.9067
 129   2.0000      -0.149173        -4.0592
 130   0.0000      -0.012479        -0.3396
 131   0.0000      -0.008125        -0.2211
 132   0.0000      -0.002092        -0.0569
 133   0.0000       0.001021         0.0278
 134   0.0000       0.005073         0.1380

MULLIKEN ATOMIC CHARGES
-----------------------
   0 Ru:   -1.569717
   1 Se:   -0.295033
   2 P :    1.246752
   3 P :    1.036552
   4 P :    0.952676
   5 P :    0.818980
   6 C :    0.456349
   7 C :   -0.555946
   8 C :   -0.210861
   9 C :   -0.160608
  10 C :   -0.633622
  11 C :    0.683286
  12 C :   -0.800457
  13 C :   -0.643648
  14 C :   -0.612804
  15 C :   -0.727993
  16 C :   -0.541634
  17 C :   -0.537735
  18 C :   -0.369075
  19 C :   -0.618757
  20 C :   -0.564214
  21 C :   -0.451378
  22 C :   -0.646386
  23 C :   -0.363003
  24 H :   -0.045696
  25 H :    0.041642
  26 H :    0.034210
  27 H :    0.043886
  28 H :    0.025477
  29 H :    0.002536
  30 H :    0.106757
  31 H :    0.164517
  32 H :    0.201801
  33 H :    0.157675
  34 H :    0.138674
  35 H :    0.198232
  36 H :    0.120358
  37 H :    0.167207
  38 H :    0.054637
  39 H :    0.189891
  40 H :    0.123684
  41 H :    0.131222
  42 H :    0.161624
  43 H :    0.137652
  44 H :    0.090887
  45 H :    0.173529
  46 H :    0.079222
  47 H :    0.143656
  48 H :    0.178941
  49 H :    0.051207
  50 H :    0.077251
  51 H :    0.181328
  52 H :    0.117746
  53 H :    0.147273
  54 H :    0.194052
  55 H :    0.147976
  56 H :    0.113016
  57 H :    0.181547
  58 H :    0.116869
  59 H :    0.055592
  60 H :    0.179300
  61 H :    0.142525
  62 H :    0.168185
  63 H :    0.191919
  64 H :    0.091274
  65 H :    0.128992
Sum of atomic charges:    0.0000000

LOEWDIN ATOMIC CHARGES
----------------------
   0 Ru:   -0.064188
   1 Se:    0.682289
   2 P :    0.759507
   3 P :    0.768464
   4 P :    0.769310
   5 P :    0.764160
   6 C :   -0.583199
   7 C :   -0.064164
   8 C :   -0.003173
   9 C :   -0.007283
  10 C :    0.004608
  11 C :   -0.091864
  12 C :   -0.026446
  13 C :   -0.018248
  14 C :   -0.026386
  15 C :   -0.032274
  16 C :   -0.018664
  17 C :   -0.014731
  18 C :   -0.017387
  19 C :   -0.022597
  20 C :   -0.047766
  21 C :   -0.004524
  22 C :   -0.018509
  23 C :   -0.038959
  24 H :   -0.113330
  25 H :   -0.017188
  26 H :   -0.006274
  27 H :   -0.011469
  28 H :   -0.004677
  29 H :   -0.066503
  30 H :   -0.062474
  31 H :   -0.066368
  32 H :   -0.051179
  33 H :   -0.068186
  34 H :   -0.087490
  35 H :   -0.050887
  36 H :   -0.054329
  37 H :   -0.051137
  38 H :   -0.091096
  39 H :   -0.050675
  40 H :   -0.076326
  41 H :   -0.067436
  42 H :   -0.050923
  43 H :   -0.067460
  44 H :   -0.086374
  45 H :   -0.050148
  46 H :   -0.082659
  47 H :   -0.076893
  48 H :   -0.049011
  49 H :   -0.051956
  50 H :   -0.077137
  51 H :   -0.052157
  52 H :   -0.070141
  53 H :   -0.076731
  54 H :   -0.051882
  55 H :   -0.113919
  56 H :   -0.076535
  57 H :   -0.048303
  58 H :   -0.072238
  59 H :   -0.058209
  60 H :   -0.050769
  61 H :   -0.080195
  62 H :   -0.070324
  63 H :   -0.050429
  64 H :   -0.079181
  65 H :   -0.107381

  Mayer bond orders larger than 0.100000
B(  0-Ru,  1-Se) :   0.6979 B(  0-Ru,  2-P ) :   0.6464 B(  0-Ru,  3-P ) :   0.6578
B(  0-Ru,  4-P ) :   0.6877 B(  0-Ru,  5-P ) :   0.7257 B(  0-Ru, 12-C ) :   0.1332
B(  0-Ru, 13-C ) :   0.1265 B(  0-Ru, 14-C ) :   0.1951 B(  0-Ru, 15-C ) :   0.1162
B(  0-Ru, 16-C ) :   0.1581 B(  0-Ru, 17-C ) :   0.1063 B(  0-Ru, 18-C ) :   0.1304
B(  0-Ru, 21-C ) :   0.1270 B(  0-Ru, 24-H ) :   0.7801 B(  0-Ru, 29-H ) :   0.4064
B(  1-Se,  3-P ) :  -0.2573 B(  1-Se,  4-P ) :   0.2174 B(  1-Se,  5-P ) :   0.1904
B(  1-Se,  6-C ) :   0.8291 B(  1-Se, 11-C ) :   0.1695 B(  1-Se, 15-C ) :   0.1533
B(  1-Se, 23-C ) :  -0.1091 B(  1-Se, 24-H ) :  -0.1300 B(  1-Se, 29-H ) :   0.2629
B(  2-P ,  3-P ) :   0.3994 B(  2-P ,  5-P ) :   0.2364 B(  2-P , 12-C ) :   0.5157
B(  2-P , 13-C ) :   0.6711 B(  2-P , 14-C ) :   0.7675 B(  2-P , 24-H ) :  -0.1541
B(  3-P ,  5-P ) :   0.1019 B(  3-P , 15-C ) :   0.6815 B(  3-P , 16-C ) :   0.6936
B(  3-P , 17-C ) :   0.5730 B(  3-P , 24-H ) :   0.1532 B(  4-P ,  5-P ) :   0.1962
B(  4-P , 18-C ) :   0.7409 B(  4-P , 19-C ) :   0.6535 B(  4-P , 20-C ) :   0.7686
B(  4-P , 50-H ) :   0.1373 B(  5-P , 21-C ) :   0.8162 B(  5-P , 22-C ) :   0.6127
B(  5-P , 23-C ) :   0.6913 B(  5-P , 58-H ) :   0.1098 B(  5-P , 65-H ) :   0.1244
B(  6-C ,  7-C ) :   0.9317 B(  6-C , 11-C ) :   1.1753 B(  6-C , 29-H ) :  -0.1347
B(  7-C ,  8-C ) :   1.2587 B(  7-C , 10-C ) :   0.1386 B(  7-C , 11-C ) :  -0.1548
B(  7-C , 25-H ) :   1.0237 B(  8-C ,  9-C ) :   1.1966 B(  8-C , 26-H ) :   1.1102
B(  9-C , 10-C ) :   1.2266 B(  9-C , 11-C ) :  -0.1298 B(  9-C , 27-H ) :   1.1191
B( 10-C , 11-C ) :   0.8296 B( 10-C , 28-H ) :   1.1643 B( 10-C , 29-H ) :  -0.1214
B( 11-C , 29-H ) :   0.8141 B( 12-C , 13-C ) :   0.1451 B( 12-C , 14-C ) :   0.2224
B( 12-C , 30-H ) :   1.0452 B( 12-C , 31-H ) :   0.9689 B( 12-C , 32-H ) :   0.8978
B( 13-C , 14-C ) :   0.1077 B( 13-C , 33-H ) :   0.9649 B( 13-C , 34-H ) :   1.0395
B( 13-C , 35-H ) :   0.9070 B( 14-C , 36-H ) :   0.9861 B( 14-C , 37-H ) :   0.9250
B( 14-C , 38-H ) :   1.0057 B( 15-C , 16-C ) :   0.1441 B( 15-C , 17-C ) :   0.1821
B( 15-C , 39-H ) :   0.8919 B( 15-C , 40-H ) :   1.0125 B( 15-C , 41-H ) :   0.9812
B( 16-C , 17-C ) :   0.2034 B( 16-C , 42-H ) :   0.9242 B( 16-C , 43-H ) :   0.9854
B( 16-C , 44-H ) :   0.9907 B( 17-C , 45-H ) :   0.8987 B( 17-C , 46-H ) :   0.9895
B( 17-C , 47-H ) :   1.0101 B( 18-C , 19-C ) :   0.1835 B( 18-C , 20-C ) :   0.1246
B( 18-C , 48-H ) :   0.8797 B( 18-C , 49-H ) :   0.9788 B( 18-C , 50-H ) :   1.0339
B( 19-C , 20-C ) :   0.1827 B( 19-C , 51-H ) :   0.9330 B( 19-C , 52-H ) :   1.0541
B( 19-C , 53-H ) :   0.9555 B( 20-C , 54-H ) :   0.9234 B( 20-C , 55-H ) :   0.9658
B( 20-C , 56-H ) :   1.0165 B( 21-C , 22-C ) :   0.1457 B( 21-C , 23-C ) :   0.1248
B( 21-C , 57-H ) :   0.8565 B( 21-C , 58-H ) :   1.0579 B( 21-C , 59-H ) :   0.9861
B( 22-C , 23-C ) :   0.1896 B( 22-C , 60-H ) :   0.9308 B( 22-C , 61-H ) :   1.0016
B( 22-C , 62-H ) :   0.9934 B( 23-C , 63-H ) :   0.9209 B( 23-C , 64-H ) :   1.0034
B( 23-C , 65-H ) :   0.9068 B( 24-H , 29-H ) :   0.1721 B( 57-H , 58-H ) :   0.1045

Dispersion correction           -0.148681977
FINAL SINGLE POINT ENERGY     -4573.820784731222

DIPOLE MOMENT
-------------
                                X             Y             Z
Electronic contribution:      6.70122       3.77832      -7.30381
Nuclear contribution   :     -4.37445      -3.89216       7.69405
                        -----------------------------------------
Total Dipole Moment    :      2.32677      -0.11384       0.39024
                        -----------------------------------------
Magnitude (a.u.)       :      2.36201
Magnitude (Debye)      :      6.00376

Rotational constants in cm-1:     0.006518     0.004113     0.003881
Rotational constants in MHz :   195.407297   123.317842   116.359449

                             ****ORCA TERMINATED NORMALLY****
TOTAL RUN TIME: 0 days 1 hours 4 minutes 48 seconds 260 msec
