                         Program Version 4.2.0 -  RELEASE  -
|  1> #
|  2> # MOR37_pr38 TPSSh-D3BJ/Def2-TZVPPD
|  3> #
|  4> ! tpssh d3bj def2-tzvppd def2/jk grid4 nofinalgrid
|  5>
|  6> *xyz 0 1
|  7> Mo       0.000368   -0.000951   -0.664236
|  8> C        1.186218    1.095679   -1.824431
|  9> C       -1.543342    0.475450   -1.823831
| 10> C        0.358600   -1.578355   -1.821075
| 11> O        0.584740   -2.492846   -2.512436
| 12> O        1.864319    1.747384   -2.517871
| 13> O       -2.447606    0.735637   -2.516687
| 14> P        1.980785   -0.729448    0.688588
| 15> P       -1.623545   -1.348294    0.688464
| 16> P       -0.357708    2.080403    0.685812
| 17> C       -1.633250    3.223236    0.009653
| 18> H       -1.705660    4.145387    0.596929
| 19> H       -2.603028    2.718106    0.000627
| 20> H       -1.373511    3.465952   -1.024212
| 21> C       -0.858884    2.043709    2.465539
| 22> H       -1.825180    1.541749    2.565977
| 23> H       -0.943418    3.056285    2.875390
| 24> H       -0.120247    1.484663    3.045786
| 25> C        1.092608    3.215640    0.782943
| 26> H        0.848407    4.138527    1.320517
| 27> H        1.418994    3.459201   -0.231490
| 28> H        1.920240    2.713456    1.291867
| 29> C       -1.984130   -3.020964    0.008508
| 30> H       -2.747676   -3.543086    0.595776
| 31> H       -1.064326   -3.612180   -0.003877
| 32> H       -2.325682   -2.913010   -1.024422
| 33> C       -1.336917   -1.769970    2.466070
| 34> H       -2.171293   -2.349509    2.876428
| 35> H       -1.219304   -0.852646    3.048800
| 36> H       -0.419591   -2.357379    2.562237
| 37> C       -3.329045   -0.653966    0.792955
| 38> H       -4.006858   -1.325859    1.330979
| 39> H       -3.705797   -0.489375   -0.219919
| 40> H       -3.303097    0.312486    1.304224
| 41> C        3.608641   -0.198569    0.011444
| 42> H        4.443241   -0.596886    0.599054
| 43> H        3.657034    0.893802    0.001026
| 44> H        3.688452   -0.546249   -1.021993
| 45> C        2.199807   -0.272940    2.467201
| 46> H        3.119209   -0.704894    2.877753
| 47> H        1.346620   -0.631939    3.048604
| 48> H        2.248134    0.815142    2.564989
| 49> C        2.238042   -2.552971    0.789569
| 50> H        3.157648   -2.802349    1.330381
| 51> H        2.288935   -2.958854   -0.224143
| 52> H        1.387609   -3.017788    1.296348
| 53> *
| 54>
| 55> %maxcore 5000
| 56>
| 57> %pal
| 58> nprocs = 24
| 59> end
| 60>
| 61>
| 62>                          ****END OF INPUT****

CARTESIAN COORDINATES (ANGSTROEM)
---------------------------------
  Mo     0.000368   -0.000951   -0.664236
  C      1.186218    1.095679   -1.824431
  C     -1.543342    0.475450   -1.823831
  C      0.358600   -1.578355   -1.821075
  O      0.584740   -2.492846   -2.512436
  O      1.864319    1.747384   -2.517871
  O     -2.447606    0.735637   -2.516687
  P      1.980785   -0.729448    0.688588
  P     -1.623545   -1.348294    0.688464
  P     -0.357708    2.080403    0.685812
  C     -1.633250    3.223236    0.009653
  H     -1.705660    4.145387    0.596929
  H     -2.603028    2.718106    0.000627
  H     -1.373511    3.465952   -1.024212
  C     -0.858884    2.043709    2.465539
  H     -1.825180    1.541749    2.565977
  H     -0.943418    3.056285    2.875390
  H     -0.120247    1.484663    3.045786
  C      1.092608    3.215640    0.782943
  H      0.848407    4.138527    1.320517
  H      1.418994    3.459201   -0.231490
  H      1.920240    2.713456    1.291867
  C     -1.984130   -3.020964    0.008508
  H     -2.747676   -3.543086    0.595776
  H     -1.064326   -3.612180   -0.003877
  H     -2.325682   -2.913010   -1.024422
  C     -1.336917   -1.769970    2.466070
  H     -2.171293   -2.349509    2.876428
  H     -1.219304   -0.852646    3.048800
  H     -0.419591   -2.357379    2.562237
  C     -3.329045   -0.653966    0.792955
  H     -4.006858   -1.325859    1.330979
  H     -3.705797   -0.489375   -0.219919
  H     -3.303097    0.312486    1.304224
  C      3.608641   -0.198569    0.011444
  H      4.443241   -0.596886    0.599054
  H      3.657034    0.893802    0.001026
  H      3.688452   -0.546249   -1.021993
  C      2.199807   -0.272940    2.467201
  H      3.119209   -0.704894    2.877753
  H      1.346620   -0.631939    3.048604
  H      2.248134    0.815142    2.564989
  C      2.238042   -2.552971    0.789569
  H      3.157648   -2.802349    1.330381
  H      2.288935   -2.958854   -0.224143
  H      1.387609   -3.017788    1.296348

 Total Charge           Charge          ....    0
 Multiplicity           Mult            ....    1
 Number of Electrons    NEL             ....  182
 Basis Dimension        Dim             .... 1223

ORBITAL ENERGIES
----------------

  NO   OCC          E(Eh)            E(eV)
   0   2.0000     -76.940272     -2093.6513
   1   2.0000     -76.940260     -2093.6509
   2   2.0000     -76.940237     -2093.6503
   3   2.0000     -19.074491      -519.0433
   4   2.0000     -19.074488      -519.0432
   5   2.0000     -19.074474      -519.0428
   6   2.0000     -10.172373      -276.8043
   7   2.0000     -10.172365      -276.8041
   8   2.0000     -10.172356      -276.8039
   9   2.0000     -10.124527      -275.5024
  10   2.0000     -10.124526      -275.5024
  11   2.0000     -10.124520      -275.5022
  12   2.0000     -10.118760      -275.3455
  13   2.0000     -10.118743      -275.3450
  14   2.0000     -10.118705      -275.3439
  15   2.0000     -10.115645      -275.2607
  16   2.0000     -10.115607      -275.2597
  17   2.0000     -10.115571      -275.2587
  18   2.0000      -6.493663      -176.7016
  19   2.0000      -6.493652      -176.7013
  20   2.0000      -6.493639      -176.7009
  21   2.0000      -4.643387      -126.3530
  22   2.0000      -4.643376      -126.3527
  23   2.0000      -4.643355      -126.3521
  24   2.0000      -4.643149      -126.3465
  25   2.0000      -4.643131      -126.3460
  26   2.0000      -4.643116      -126.3456
  27   2.0000      -4.639125      -126.2370
  28   2.0000      -4.639119      -126.2368
  29   2.0000      -4.639111      -126.2366
  30   2.0000      -2.464415       -67.0601
  31   2.0000      -1.478364       -40.2283
  32   2.0000      -1.478358       -40.2282
  33   2.0000      -1.477917       -40.2162
  34   2.0000      -1.047373       -28.5005
  35   2.0000      -1.046813       -28.4852
  36   2.0000      -1.046801       -28.4849
  37   2.0000      -0.760072       -20.6826
  38   2.0000      -0.755091       -20.5471
  39   2.0000      -0.755088       -20.5470
  40   2.0000      -0.689693       -18.7675
  41   2.0000      -0.686974       -18.6935
  42   2.0000      -0.686924       -18.6922
  43   2.0000      -0.682369       -18.5682
  44   2.0000      -0.682328       -18.5671
  45   2.0000      -0.681326       -18.5398
  46   2.0000      -0.541031       -14.7222
  47   2.0000      -0.527527       -14.3548
  48   2.0000      -0.527523       -14.3546
  49   2.0000      -0.506987       -13.7958
  50   2.0000      -0.497397       -13.5349
  51   2.0000      -0.497385       -13.5345
  52   2.0000      -0.449079       -12.2200
  53   2.0000      -0.440348       -11.9825
  54   2.0000      -0.440284       -11.9807
  55   2.0000      -0.428880       -11.6704
  56   2.0000      -0.428837       -11.6693
  57   2.0000      -0.427288       -11.6271
  58   2.0000      -0.422114       -11.4863
  59   2.0000      -0.419053       -11.4030
  60   2.0000      -0.419042       -11.4027
  61   2.0000      -0.402801       -10.9608
  62   2.0000      -0.402715       -10.9584
  63   2.0000      -0.402654       -10.9568
  64   2.0000      -0.398596       -10.8464
  65   2.0000      -0.398525       -10.8444
  66   2.0000      -0.398188       -10.8352
  67   2.0000      -0.395026       -10.7492
  68   2.0000      -0.386408       -10.5147
  69   2.0000      -0.386259       -10.5106
  70   2.0000      -0.386235       -10.5100
  71   2.0000      -0.382701       -10.4138
  72   2.0000      -0.382641       -10.4122
  73   2.0000      -0.378043       -10.2871
  74   2.0000      -0.375503       -10.2179
  75   2.0000      -0.375476       -10.2172
  76   2.0000      -0.374188       -10.1822
  77   2.0000      -0.368334       -10.0229
  78   2.0000      -0.368330       -10.0228
  79   2.0000      -0.333300        -9.0696
  80   2.0000      -0.331613        -9.0236
  81   2.0000      -0.331585        -9.0229
  82   2.0000      -0.325000        -8.8437
  83   2.0000      -0.324990        -8.8434
  84   2.0000      -0.323637        -8.8066
  85   2.0000      -0.269740        -7.3400
  86   2.0000      -0.259777        -7.0689
  87   2.0000      -0.259746        -7.0680
  88   2.0000      -0.177439        -4.8284
  89   2.0000      -0.177433        -4.8282
  90   2.0000      -0.175829        -4.7845
  91   0.0000      -0.017135        -0.4663
  92   0.0000      -0.017134        -0.4662
  93   0.0000      -0.016546        -0.4502
  94   0.0000      -0.008046        -0.2190
  95   0.0000       0.001591         0.0433

MULLIKEN ATOMIC CHARGES
-----------------------
   0 Mo:   -1.829290
   1 C :    0.578536
   2 C :    0.585477
   3 C :    0.575252
   4 O :   -0.496114
   5 O :   -0.496226
   6 O :   -0.496518
   7 P :    1.080693
   8 P :    1.058951
   9 P :    1.045524
  10 C :   -0.590060
  11 H :    0.157918
  12 H :    0.109332
  13 H :    0.090129
  14 C :   -0.548840
  15 H :    0.110467
  16 H :    0.165766
  17 H :    0.107576
  18 C :   -0.456817
  19 H :    0.152168
  20 H :    0.113586
  21 H :    0.063606
  22 C :   -0.587514
  23 H :    0.156530
  24 H :    0.108995
  25 H :    0.091766
  26 C :   -0.558450
  27 H :    0.161842
  28 H :    0.110613
  29 H :    0.110515
  30 C :   -0.459505
  31 H :    0.149596
  32 H :    0.115404
  33 H :    0.060775
  34 C :   -0.590636
  35 H :    0.155752
  36 H :    0.109340
  37 H :    0.092924
  38 C :   -0.559304
  39 H :    0.161012
  40 H :    0.113831
  41 H :    0.110367
  42 C :   -0.458861
  43 H :    0.147935
  44 H :    0.112760
  45 H :    0.063197
Sum of atomic charges:   -0.0000000

LOEWDIN ATOMIC CHARGES
----------------------
   0 Mo:    0.127425
   1 C :   -0.319961
   2 C :   -0.319972
   3 C :   -0.319982
   4 O :    0.033440
   5 O :    0.033463
   6 O :    0.033412
   7 P :    0.838585
   8 P :    0.838352
   9 P :    0.838346
  10 C :   -0.018191
  11 H :   -0.051669
  12 H :   -0.058550
  13 H :   -0.048665
  14 C :   -0.020563
  15 H :   -0.075574
  16 H :   -0.050398
  17 H :   -0.074417
  18 C :   -0.014533
  19 H :   -0.050425
  20 H :   -0.058417
  21 H :   -0.072906
  22 C :   -0.018297
  23 H :   -0.051714
  24 H :   -0.058397
  25 H :   -0.048660
  26 C :   -0.020708
  27 H :   -0.050458
  28 H :   -0.074165
  29 H :   -0.075453
  30 C :   -0.014451
  31 H :   -0.050391
  32 H :   -0.058377
  33 H :   -0.073307
  34 C :   -0.018293
  35 H :   -0.051686
  36 H :   -0.058498
  37 H :   -0.048697
  38 C :   -0.020755
  39 H :   -0.050470
  40 H :   -0.074261
  41 H :   -0.075413
  42 C :   -0.014525
  43 H :   -0.050449
  44 H :   -0.058352
  45 H :   -0.073023

  Mayer bond orders larger than 0.100000
B(  0-Mo,  1-C ) :   1.6138 B(  0-Mo,  2-C ) :   1.6186 B(  0-Mo,  3-C ) :   1.6186
B(  0-Mo,  7-P ) :   0.5523 B(  0-Mo,  8-P ) :   0.5514 B(  0-Mo,  9-P ) :   0.5571
B(  0-Mo, 10-C ) :   0.1007 B(  1-C ,  2-C ) :  -0.1302 B(  1-C ,  3-C ) :  -0.1304
B(  1-C ,  5-O ) :   1.6161 B(  2-C ,  3-C ) :  -0.1289 B(  2-C ,  6-O ) :   1.6169
B(  3-C ,  4-O ) :   1.6169 B(  7-P ,  8-P ) :   0.1441 B(  7-P ,  9-P ) :   0.1447
B(  7-P , 34-C ) :   0.7725 B(  7-P , 38-C ) :   0.8595 B(  7-P , 42-C ) :   0.8122
B(  8-P ,  9-P ) :   0.1506 B(  8-P , 22-C ) :   0.7697 B(  8-P , 26-C ) :   0.8667
B(  8-P , 30-C ) :   0.8135 B(  9-P , 10-C ) :   0.7743 B(  9-P , 14-C ) :   0.8659
B(  9-P , 18-C ) :   0.8189 B( 10-C , 11-H ) :   0.9328 B( 10-C , 12-H ) :   0.9833
B( 10-C , 13-H ) :   0.9905 B( 10-C , 14-C ) :   0.1313 B( 10-C , 18-C ) :   0.1508
B( 14-C , 15-H ) :   0.9878 B( 14-C , 16-H ) :   0.9319 B( 14-C , 17-H ) :   1.0181
B( 14-C , 18-C ) :   0.1467 B( 18-C , 19-H ) :   0.9480 B( 18-C , 20-H ) :   0.9411
B( 18-C , 21-H ) :   1.0018 B( 22-C , 23-H ) :   0.9352 B( 22-C , 24-H ) :   0.9821
B( 22-C , 25-H ) :   0.9890 B( 22-C , 26-C ) :   0.1319 B( 22-C , 30-C ) :   0.1510
B( 26-C , 27-H ) :   0.9351 B( 26-C , 28-H ) :   1.0171 B( 26-C , 29-H ) :   0.9874
B( 26-C , 30-C ) :   0.1480 B( 30-C , 31-H ) :   0.9512 B( 30-C , 32-H ) :   0.9409
B( 30-C , 33-H ) :   1.0039 B( 34-C , 35-H ) :   0.9363 B( 34-C , 36-H ) :   0.9815
B( 34-C , 37-H ) :   0.9868 B( 34-C , 38-C ) :   0.1319 B( 34-C , 42-C ) :   0.1505
B( 38-C , 39-H ) :   0.9371 B( 38-C , 40-H ) :   1.0150 B( 38-C , 41-H ) :   0.9873
B( 38-C , 42-C ) :   0.1485 B( 42-C , 43-H ) :   0.9521 B( 42-C , 44-H ) :   0.9403
B( 42-C , 45-H ) :   1.0029

Dispersion correction           -0.099004585
FINAL SINGLE POINT ENERGY     -1792.205180849015

DIPOLE MOMENT
-------------
                                X             Y             Z
Electronic contribution:      0.03112      -0.08876     -63.18672
Nuclear contribution   :     -0.03125       0.09337      66.31953
                        -----------------------------------------
Total Dipole Moment    :     -0.00013       0.00461       3.13281
                        -----------------------------------------
Magnitude (a.u.)       :      3.13281
Magnitude (Debye)      :      7.96297

Rotational constants in cm-1:     0.008677     0.008672     0.007610
Rotational constants in MHz :   260.126059   259.983430   228.154635

                             ****ORCA TERMINATED NORMALLY****
TOTAL RUN TIME: 0 days 0 hours 22 minutes 24 seconds 381 msec
