                         Program Version 4.2.0 -  RELEASE  -
|  1> #
|  2> # MOR35_pr36 TPSSh-D3BJ/Def2-TZVPPD
|  3> #
|  4> ! tpssh d3bj def2-tzvppd def2/jk grid4 nofinalgrid
|  5>
|  6> *xyz 0 1
|  7> Mo       0.001156    0.812745    0.000207
|  8> C        1.172497    1.772826   -1.694485
|  9> C        0.639726    0.579325   -2.273801
| 10> C       -0.771247    0.649846   -2.254302
| 11> C       -1.164711    1.879753   -1.653638
| 12> C        0.046469    2.597671   -1.356619
| 13> H        2.218029    2.030602   -1.618416
| 14> H        1.217264   -0.260486   -2.625291
| 15> H       -1.439014   -0.129218   -2.585395
| 16> H       -2.178363    2.230425   -1.528995
| 17> H        0.103229    3.616282   -1.010207
| 18> C       -0.046468    2.595414    1.359819
| 19> C       -1.170703    1.767726    1.696458
| 20> C        0.775662    0.648005    2.254259
| 21> C        1.166251    1.879509    1.655532
| 22> H       -2.216820    2.023173    1.620920
| 23> H       -1.210568   -0.267639    2.623707
| 24> C       -0.635131    0.574168    2.273601
| 25> H        2.179106    2.232469    1.530897
| 26> H       -0.105362    3.614384    1.014912
| 27> H        1.445278   -0.130208    2.583598
| 28> I        1.897907   -1.310822   -0.012606
| 29> I       -1.900461   -1.307301    0.011561
| 30> *
| 31>
| 32> %maxcore 5000
| 33>
| 34> %pal
| 35> nprocs = 24
| 36> end
| 37>
| 38>
| 39>                          ****END OF INPUT****

CARTESIAN COORDINATES (ANGSTROEM)
---------------------------------
  Mo     0.001156    0.812745    0.000207
  C      1.172497    1.772826   -1.694485
  C      0.639726    0.579325   -2.273801
  C     -0.771247    0.649846   -2.254302
  C     -1.164711    1.879753   -1.653638
  C      0.046469    2.597671   -1.356619
  H      2.218029    2.030602   -1.618416
  H      1.217264   -0.260486   -2.625291
  H     -1.439014   -0.129218   -2.585395
  H     -2.178363    2.230425   -1.528995
  H      0.103229    3.616282   -1.010207
  C     -0.046468    2.595414    1.359819
  C     -1.170703    1.767726    1.696458
  C      0.775662    0.648005    2.254259
  C      1.166251    1.879509    1.655532
  H     -2.216820    2.023173    1.620920
  H     -1.210568   -0.267639    2.623707
  C     -0.635131    0.574168    2.273601
  H      2.179106    2.232469    1.530897
  H     -0.105362    3.614384    1.014912
  H      1.445278   -0.130208    2.583598
  I      1.897907   -1.310822   -0.012606
  I     -1.900461   -1.307301    0.011561

 Total Charge           Charge          ....    0
 Multiplicity           Mult            ....    1
 Number of Electrons    NEL             ....  134
 Basis Dimension        Dim             ....  714

ORBITAL ENERGIES
----------------

  NO   OCC          E(Eh)            E(eV)
   0   2.0000     -10.167990      -276.6851
   1   2.0000     -10.167933      -276.6835
   2   2.0000     -10.161385      -276.5053
   3   2.0000     -10.161261      -276.5020
   4   2.0000     -10.159635      -276.4577
   5   2.0000     -10.159615      -276.4572
   6   2.0000     -10.157775      -276.4071
   7   2.0000     -10.157650      -276.4037
   8   2.0000     -10.156413      -276.3700
   9   2.0000     -10.156399      -276.3697
  10   2.0000      -6.708368      -182.5440
  11   2.0000      -6.708350      -182.5435
  12   2.0000      -4.743229      -129.0698
  13   2.0000      -4.743213      -129.0694
  14   2.0000      -4.735501      -128.8595
  15   2.0000      -4.735481      -128.8590
  16   2.0000      -4.735122      -128.8492
  17   2.0000      -4.735103      -128.8487
  18   2.0000      -2.561785       -69.7097
  19   2.0000      -1.816338       -49.4251
  20   2.0000      -1.816313       -49.4244
  21   2.0000      -1.814273       -49.3689
  22   2.0000      -1.814257       -49.3684
  23   2.0000      -1.813866       -49.3578
  24   2.0000      -1.813816       -49.3564
  25   2.0000      -1.807371       -49.1811
  26   2.0000      -1.807348       -49.1804
  27   2.0000      -1.807325       -49.1798
  28   2.0000      -1.807303       -49.1792
  29   2.0000      -1.591198       -43.2987
  30   2.0000      -1.571431       -42.7608
  31   2.0000      -1.554147       -42.2905
  32   2.0000      -0.903027       -24.5726
  33   2.0000      -0.889003       -24.1910
  34   2.0000      -0.737046       -20.0561
  35   2.0000      -0.729777       -19.8582
  36   2.0000      -0.728173       -19.8146
  37   2.0000      -0.726539       -19.7701
  38   2.0000      -0.623674       -16.9710
  39   2.0000      -0.615235       -16.7414
  40   2.0000      -0.576999       -15.7009
  41   2.0000      -0.559842       -15.2341
  42   2.0000      -0.557461       -15.1693
  43   2.0000      -0.556538       -15.1442
  44   2.0000      -0.550822       -14.9886
  45   2.0000      -0.540899       -14.7186
  46   2.0000      -0.436020       -11.8647
  47   2.0000      -0.426596       -11.6083
  48   2.0000      -0.423812       -11.5325
  49   2.0000      -0.423680       -11.5289
  50   2.0000      -0.420489       -11.4421
  51   2.0000      -0.402906       -10.9636
  52   2.0000      -0.398590       -10.8462
  53   2.0000      -0.395761       -10.7692
  54   2.0000      -0.393425       -10.7056
  55   2.0000      -0.386504       -10.5173
  56   2.0000      -0.312049        -8.4913
  57   2.0000      -0.306943        -8.3523
  58   2.0000      -0.300856        -8.1867
  59   2.0000      -0.283397        -7.7116
  60   2.0000      -0.276556        -7.5255
  61   2.0000      -0.265253        -7.2179
  62   2.0000      -0.251101        -6.8328
  63   2.0000      -0.211201        -5.7471
  64   2.0000      -0.210157        -5.7187
  65   2.0000      -0.198764        -5.4086
  66   2.0000      -0.184481        -5.0200
  67   0.0000      -0.085256        -2.3199
  68   0.0000      -0.077928        -2.1205
  69   0.0000      -0.061691        -1.6787
  70   0.0000      -0.036389        -0.9902
  71   0.0000      -0.013179        -0.3586

MULLIKEN ATOMIC CHARGES
-----------------------
   0 Mo:   -1.452856
   1 C :    0.596402
   2 C :   -0.271244
   3 C :   -0.266483
   4 C :    0.653891
   5 C :   -0.052589
   6 H :   -0.129138
   7 H :    0.209944
   8 H :    0.253881
   9 H :   -0.071199
  10 H :    0.095436
  11 C :   -0.050691
  12 C :    0.594576
  13 C :   -0.273106
  14 C :    0.657740
  15 H :   -0.130075
  16 H :    0.207748
  17 C :   -0.268232
  18 H :   -0.069963
  19 H :    0.095853
  20 H :    0.254408
  21 I :   -0.292178
  22 I :   -0.292125
Sum of atomic charges:    0.0000000

LOEWDIN ATOMIC CHARGES
----------------------
   0 Mo:    0.683979
   1 C :   -0.081497
   2 C :   -0.144089
   3 C :   -0.138198
   4 C :   -0.067043
   5 C :   -0.077407
   6 H :    0.004931
   7 H :   -0.047011
   8 H :   -0.048403
   9 H :    0.007865
  10 H :   -0.001916
  11 C :   -0.077452
  12 C :   -0.082178
  13 C :   -0.138340
  14 C :   -0.066684
  15 H :    0.004821
  16 H :   -0.047273
  17 C :   -0.144766
  18 H :    0.007927
  19 H :   -0.001926
  20 H :   -0.048544
  21 I :    0.251308
  22 I :    0.251896

  Mayer bond orders larger than 0.100000
B(  0-Mo,  1-C ) :   0.1939 B(  0-Mo,  2-C ) :   0.7130 B(  0-Mo,  3-C ) :   0.6642
B(  0-Mo,  4-C ) :   0.1701 B(  0-Mo,  5-C ) :   1.0162 B(  0-Mo,  6-H ) :   0.1093
B(  0-Mo, 11-C ) :   1.0146 B(  0-Mo, 12-C ) :   0.1962 B(  0-Mo, 13-C ) :   0.6690
B(  0-Mo, 14-C ) :   0.1674 B(  0-Mo, 15-H ) :   0.1098 B(  0-Mo, 17-C ) :   0.7090
B(  0-Mo, 21-I ) :   0.8187 B(  0-Mo, 22-I ) :   0.8182 B(  1-C ,  2-C ) :   0.6670
B(  1-C ,  3-C ) :  -0.2079 B(  1-C ,  5-C ) :   0.8117 B(  1-C ,  6-H ) :   1.0864
B(  1-C , 11-C ) :  -0.1688 B(  1-C , 12-C ) :   0.1372 B(  1-C , 14-C ) :   0.3633
B(  2-C ,  3-C ) :   0.8873 B(  2-C ,  4-C ) :  -0.2109 B(  2-C ,  7-H ) :   1.1270
B(  2-C , 21-I ) :   0.2172 B(  3-C ,  4-C ) :   0.6883 B(  3-C ,  8-H ) :   1.0832
B(  3-C , 22-I ) :   0.2545 B(  4-C ,  5-C ) :   0.8508 B(  4-C ,  9-H ) :   1.0500
B(  4-C , 11-C ) :  -0.1769 B(  4-C , 12-C ) :   0.3642 B(  4-C , 14-C ) :   0.1280
B(  5-C , 10-H ) :   1.0196 B(  5-C , 11-C ) :   0.3214 B(  5-C , 12-C ) :  -0.1675
B(  5-C , 14-C ) :  -0.1770 B(  7-H , 21-I ) :  -0.1866 B(  8-H , 22-I ) :  -0.2020
B( 11-C , 12-C ) :   0.8146 B( 11-C , 14-C ) :   0.8492 B( 11-C , 19-H ) :   1.0197
B( 12-C , 13-C ) :  -0.2070 B( 12-C , 15-H ) :   1.0859 B( 12-C , 17-C ) :   0.6684
B( 13-C , 14-C ) :   0.6857 B( 13-C , 17-C ) :   0.8863 B( 13-C , 20-H ) :   1.0834
B( 13-C , 21-I ) :   0.2542 B( 14-C , 17-C ) :  -0.2076 B( 14-C , 18-H ) :   1.0495
B( 16-H , 17-C ) :   1.1288 B( 16-H , 22-I ) :  -0.1852 B( 17-C , 22-I ) :   0.2184
B( 20-H , 21-I ) :  -0.2026

Dispersion correction           -0.052737568
FINAL SINGLE POINT ENERGY     -1050.884162389327

DIPOLE MOMENT
-------------
                                X             Y             Z
Electronic contribution:     -0.09846    -124.19915      -0.05818
Nuclear contribution   :      0.10150     127.02090       0.05751
                        -----------------------------------------
Total Dipole Moment    :      0.00305       2.82176      -0.00067
                        -----------------------------------------
Magnitude (a.u.)       :      2.82176
Magnitude (Debye)      :      7.17234

Rotational constants in cm-1:     0.012573     0.011263     0.008836
Rotational constants in MHz :   376.926737   337.652277   264.898337

                             ****ORCA TERMINATED NORMALLY****
TOTAL RUN TIME: 0 days 0 hours 9 minutes 50 seconds 25 msec
