                         Program Version 4.2.0 -  RELEASE  -
|  1> #
|  2> # TMB09_T1 TPSSh-D3BJ/Def2-TZVPPD
|  3> #
|  4> ! tpssh d3bj def2-tzvppd def2/jk grid4 nofinalgrid
|  5>
|  6> *xyz 0 1
|  7> Mo       0.144293   -0.018278    0.187956
|  8> C       -1.882744   -1.070987   -0.485243
|  9> C       -1.076439    2.809087   -0.488683
| 10> H       -1.056313    3.572787    0.310053
| 11> H       -2.117393    2.730299   -0.852689
| 12> H       -0.453643    3.172151   -1.326804
| 13> C        1.996084   -2.290843   -0.946924
| 14> C        2.556730    1.794509   -0.039409
| 15> N       -0.610025    1.553803    0.004719
| 16> O        1.936938    0.565567   -0.322724
| 17> O        0.833025   -1.766355   -0.360705
| 18> H        1.780871   -2.689531   -1.957376
| 19> H        2.380311   -3.126092   -0.331250
| 20> H        2.779790   -1.516765   -1.025980
| 21> H        3.470410    1.892833   -0.654307
| 22> H        2.854397    1.863620    1.026056
| 23> H        1.897937    2.657406   -0.259961
| 24> C       -0.134457   -0.284271    2.087106
| 25> C       -1.864166   -1.358035    0.884748
| 26> H        0.299474   -1.167843    2.578202
| 27> H       -0.661177    0.399181    2.762773
| 28> H       -1.449974   -2.303708    1.234049
| 29> H       -2.567349   -0.858578    1.555883
| 30> C       -2.930318   -0.174171   -1.105185
| 31> H       -2.557155    0.344677   -2.001613
| 32> H       -3.799822   -0.779414   -1.421129
| 33> H       -3.293476    0.582538   -0.393193
| 34> H       -1.444854   -1.827941   -1.140932
| 35> *
| 36>
| 37> %maxcore 5000
| 38>
| 39> %pal
| 40> nprocs = 24
| 41> end
| 42>
| 43>
| 44>                          ****END OF INPUT****

CARTESIAN COORDINATES (ANGSTROEM)
---------------------------------
  Mo     0.144293   -0.018278    0.187956
  C     -1.882744   -1.070987   -0.485243
  C     -1.076439    2.809087   -0.488683
  H     -1.056313    3.572787    0.310053
  H     -2.117393    2.730299   -0.852689
  H     -0.453643    3.172151   -1.326804
  C      1.996084   -2.290843   -0.946924
  C      2.556730    1.794509   -0.039409
  N     -0.610025    1.553803    0.004719
  O      1.936938    0.565567   -0.322724
  O      0.833025   -1.766355   -0.360705
  H      1.780871   -2.689531   -1.957376
  H      2.380311   -3.126092   -0.331250
  H      2.779790   -1.516765   -1.025980
  H      3.470410    1.892833   -0.654307
  H      2.854397    1.863620    1.026056
  H      1.897937    2.657406   -0.259961
  C     -0.134457   -0.284271    2.087106
  C     -1.864166   -1.358035    0.884748
  H      0.299474   -1.167843    2.578202
  H     -0.661177    0.399181    2.762773
  H     -1.449974   -2.303708    1.234049
  H     -2.567349   -0.858578    1.555883
  C     -2.930318   -0.174171   -1.105185
  H     -2.557155    0.344677   -2.001613
  H     -3.799822   -0.779414   -1.421129
  H     -3.293476    0.582538   -0.393193
  H     -1.444854   -1.827941   -1.140932

 Total Charge           Charge          ....    0
 Multiplicity           Mult            ....    1
 Number of Electrons    NEL             ....   96
 Basis Dimension        Dim             ....  721

ORBITAL ENERGIES
----------------

  NO   OCC          E(Eh)            E(eV)
   0   2.0000     -19.016916      -517.4766
   1   2.0000     -19.015950      -517.4503
   2   2.0000     -14.242445      -387.5566
   3   2.0000     -10.148055      -276.1426
   4   2.0000     -10.145018      -276.0600
   5   2.0000     -10.137392      -275.8525
   6   2.0000     -10.132640      -275.7232
   7   2.0000     -10.126437      -275.5544
   8   2.0000     -10.124289      -275.4959
   9   2.0000     -10.117019      -275.2981
  10   2.0000      -2.558592       -69.6228
  11   2.0000      -1.578802       -42.9614
  12   2.0000      -1.568423       -42.6790
  13   2.0000      -1.561740       -42.4971
  14   2.0000      -0.935086       -25.4450
  15   2.0000      -0.927732       -25.2449
  16   2.0000      -0.817768       -22.2526
  17   2.0000      -0.777521       -21.1574
  18   2.0000      -0.680532       -18.5182
  19   2.0000      -0.631913       -17.1952
  20   2.0000      -0.627894       -17.0859
  21   2.0000      -0.622633       -16.9427
  22   2.0000      -0.604865       -16.4592
  23   2.0000      -0.551789       -15.0150
  24   2.0000      -0.464266       -12.6333
  25   2.0000      -0.436648       -11.8818
  26   2.0000      -0.429034       -11.6746
  27   2.0000      -0.426373       -11.6022
  28   2.0000      -0.423057       -11.5120
  29   2.0000      -0.418174       -11.3791
  30   2.0000      -0.410001       -11.1567
  31   2.0000      -0.406099       -11.0505
  32   2.0000      -0.399868       -10.8810
  33   2.0000      -0.395758       -10.7691
  34   2.0000      -0.394510       -10.7352
  35   2.0000      -0.377540       -10.2734
  36   2.0000      -0.373109       -10.1528
  37   2.0000      -0.363199        -9.8832
  38   2.0000      -0.340923        -9.2770
  39   2.0000      -0.327253        -8.9050
  40   2.0000      -0.299460        -8.1487
  41   2.0000      -0.278356        -7.5745
  42   2.0000      -0.270178        -7.3519
  43   2.0000      -0.252624        -6.8742
  44   2.0000      -0.245461        -6.6793
  45   2.0000      -0.235689        -6.4134
  46   2.0000      -0.226413        -6.1610
  47   2.0000      -0.204053        -5.5526
  48   0.0000      -0.054329        -1.4784
  49   0.0000      -0.051210        -1.3935
  50   0.0000      -0.037976        -1.0334
  51   0.0000      -0.018795        -0.5114
  52   0.0000      -0.005071        -0.1380

MULLIKEN ATOMIC CHARGES
-----------------------
   0 Mo:    0.798209
   1 C :    0.168482
   2 C :   -0.069101
   3 H :    0.064733
   4 H :    0.049219
   5 H :    0.096753
   6 C :   -0.028577
   7 C :    0.037539
   8 N :   -0.805826
   9 O :   -0.693311
  10 O :   -0.572200
  11 H :    0.054992
  12 H :    0.042856
  13 H :    0.069215
  14 H :    0.039938
  15 H :    0.017523
  16 H :    0.049478
  17 C :    0.234845
  18 C :    0.175224
  19 H :    0.083920
  20 H :    0.062484
  21 H :    0.118825
  22 H :    0.097949
  23 C :   -0.513219
  24 H :    0.066577
  25 H :    0.039512
  26 H :    0.079817
  27 H :    0.234144
Sum of atomic charges:   -0.0000000

LOEWDIN ATOMIC CHARGES
----------------------
   0 Mo:    1.118297
   1 C :   -0.194882
   2 C :    0.019372
   3 H :   -0.008009
   4 H :   -0.020606
   5 H :   -0.009015
   6 C :    0.008947
   7 C :   -0.012645
   8 N :   -0.107763
   9 O :   -0.330079
  10 O :   -0.318275
  11 H :   -0.007492
  12 H :   -0.006252
  13 H :   -0.023660
  14 H :   -0.007618
  15 H :   -0.009030
  16 H :   -0.025822
  17 C :    0.065642
  18 C :    0.065595
  19 H :   -0.091040
  20 H :   -0.096765
  21 H :   -0.021705
  22 H :   -0.014335
  23 C :    0.092098
  24 H :   -0.018263
  25 H :   -0.010177
  26 H :   -0.019734
  27 H :   -0.016783

  Mayer bond orders larger than 0.100000
B(  0-Mo,  1-C ) :   0.7064 B(  0-Mo,  2-C ) :   0.1376 B(  0-Mo,  8-N ) :   1.2911
B(  0-Mo,  9-O ) :   0.7045 B(  0-Mo, 10-O ) :   0.7960 B(  0-Mo, 17-C ) :   1.5819
B(  0-Mo, 18-C ) :   0.3214 B(  0-Mo, 23-C ) :   0.1601 B(  1-C , 18-C ) :   0.9540
B(  1-C , 23-C ) :   1.1525 B(  1-C , 27-H ) :   0.9083 B(  2-C ,  3-H ) :   0.9791
B(  2-C ,  4-H ) :   1.0029 B(  2-C ,  5-H ) :   0.9741 B(  2-C ,  8-N ) :   0.6592
B(  6-C , 10-O ) :   0.9470 B(  6-C , 11-H ) :   0.9957 B(  6-C , 12-H ) :   0.9941
B(  6-C , 13-H ) :   0.9964 B(  7-C ,  9-O ) :   0.9561 B(  7-C , 14-H ) :   0.9972
B(  7-C , 15-H ) :   0.9944 B(  7-C , 16-H ) :   0.9885 B( 17-C , 18-C ) :   0.2603
B( 17-C , 19-H ) :   1.0180 B( 17-C , 20-H ) :   1.0231 B( 18-C , 21-H ) :   1.0386
B( 18-C , 22-H ) :   1.0562 B( 23-C , 24-H ) :   0.9772 B( 23-C , 25-H ) :   1.0150
B( 23-C , 26-H ) :   0.9779

Dispersion correction           -0.038014275
FINAL SINGLE POINT ENERGY      -550.662186263797

DIPOLE MOMENT
-------------
                                X             Y             Z
Electronic contribution:     10.81011      -2.93014      13.16803
Nuclear contribution   :    -11.80214       3.30573     -13.02417
                        -----------------------------------------
Total Dipole Moment    :     -0.99202       0.37559       0.14385
                        -----------------------------------------
Magnitude (a.u.)       :      1.07045
Magnitude (Debye)      :      2.72087

Rotational constants in cm-1:     0.031577     0.026703     0.018834
Rotational constants in MHz :   946.666634   800.534327   564.625423

                             ****ORCA TERMINATED NORMALLY****
TOTAL RUN TIME: 0 days 0 hours 4 minutes 31 seconds 654 msec
