                         Program Version 4.2.0 -  RELEASE  -
|  1> #
|  2> # TMB01_T1 TPSSh-D3BJ/Def2-TZVPPD
|  3> #
|  4> ! tpssh d3bj def2-tzvppd def2/jk grid4 nofinalgrid
|  5>
|  6> *xyz 0 1
|  7> Zr       0.019829   -0.026802    0.120636
|  8> C        2.239874   -0.374444    1.245397
|  9> C        1.976783   -1.521588    0.474285
| 10> C        2.416443    0.711808    0.354001
| 11> H        1.819060   -2.516470    0.858019
| 12> C        2.001810   -1.148643   -0.895658
| 13> H        2.608112    1.737773    0.630719
| 14> C        2.298913    0.223349   -0.961356
| 15> H        1.861573   -1.806504   -1.739184
| 16> H        2.356666    0.814844   -1.859655
| 17> C       -1.057190   -2.235373    0.523484
| 18> C       -1.856346   -1.294393    1.201077
| 19> C       -1.167009   -1.987955   -0.868757
| 20> H       -2.005770   -1.236737    2.266001
| 21> C       -2.451652   -0.457501    0.227470
| 22> H       -0.689853   -2.550694   -1.656100
| 23> C       -2.043033   -0.903228   -1.046149
| 24> H       -3.108339    0.375352    0.426641
| 25> H       -2.305042   -0.449162   -1.987488
| 26> Cl      -0.345437    1.661478   -1.736503
| 27> C       -1.133945    2.698822    1.012771
| 28> C       -0.495222    2.377308    1.980322
| 29> H       -1.676629    3.004729    0.150271
| 30> H       -0.029188    0.104247    1.943645
| 31> H        0.041631    2.180985    2.876056
| 32> H        2.316195   -0.336400    2.319120
| 33> H       -0.485725   -3.023975    0.985751
| 34> *
| 35>
| 36> %maxcore 5000
| 37>
| 38> %pal
| 39> nprocs = 24
| 40> end
| 41>
| 42>
| 43>                          ****END OF INPUT****

CARTESIAN COORDINATES (ANGSTROEM)
---------------------------------
  Zr     0.019829   -0.026802    0.120636
  C      2.239874   -0.374444    1.245397
  C      1.976783   -1.521588    0.474285
  C      2.416443    0.711808    0.354001
  H      1.819060   -2.516470    0.858019
  C      2.001810   -1.148643   -0.895658
  H      2.608112    1.737773    0.630719
  C      2.298913    0.223349   -0.961356
  H      1.861573   -1.806504   -1.739184
  H      2.356666    0.814844   -1.859655
  C     -1.057190   -2.235373    0.523484
  C     -1.856346   -1.294393    1.201077
  C     -1.167009   -1.987955   -0.868757
  H     -2.005770   -1.236737    2.266001
  C     -2.451652   -0.457501    0.227470
  H     -0.689853   -2.550694   -1.656100
  C     -2.043033   -0.903228   -1.046149
  H     -3.108339    0.375352    0.426641
  H     -2.305042   -0.449162   -1.987488
  Cl    -0.345437    1.661478   -1.736503
  C     -1.133945    2.698822    1.012771
  C     -0.495222    2.377308    1.980322
  H     -1.676629    3.004729    0.150271
  H     -0.029188    0.104247    1.943645
  H      0.041631    2.180985    2.876056
  H      2.316195   -0.336400    2.319120
  H     -0.485725   -3.023975    0.985751

 Total Charge           Charge          ....    0
 Multiplicity           Mult            ....    1
 Number of Electrons    NEL             ....  114
 Basis Dimension        Dim             ....  772

ORBITAL ENERGIES
----------------

  NO   OCC          E(Eh)            E(eV)
   0   2.0000    -101.300420     -2756.5246
   1   2.0000     -10.134915      -275.7851
   2   2.0000     -10.130575      -275.6670
   3   2.0000     -10.130227      -275.6575
   4   2.0000     -10.129416      -275.6354
   5   2.0000     -10.127567      -275.5851
   6   2.0000     -10.126956      -275.5685
   7   2.0000     -10.126386      -275.5530
   8   2.0000     -10.126086      -275.5448
   9   2.0000     -10.125693      -275.5341
  10   2.0000     -10.125394      -275.5260
  11   2.0000     -10.123212      -275.4666
  12   2.0000     -10.123139      -275.4646
  13   2.0000      -9.302846      -253.1433
  14   2.0000      -7.046217      -191.7373
  15   2.0000      -7.043695      -191.6687
  16   2.0000      -7.043409      -191.6609
  17   2.0000      -2.072986       -56.4088
  18   2.0000      -1.225063       -33.3357
  19   2.0000      -1.221081       -33.2273
  20   2.0000      -1.211269       -32.9603
  21   2.0000      -0.872868       -23.7520
  22   2.0000      -0.863017       -23.4839
  23   2.0000      -0.751368       -20.4458
  24   2.0000      -0.718141       -19.5416
  25   2.0000      -0.703202       -19.1351
  26   2.0000      -0.702380       -19.1127
  27   2.0000      -0.701163       -19.0796
  28   2.0000      -0.697282       -18.9740
  29   2.0000      -0.561890       -15.2898
  30   2.0000      -0.542889       -14.7728
  31   2.0000      -0.538134       -14.6434
  32   2.0000      -0.533790       -14.5252
  33   2.0000      -0.532961       -14.5026
  34   2.0000      -0.525541       -14.3007
  35   2.0000      -0.518144       -14.0994
  36   2.0000      -0.487487       -13.2652
  37   2.0000      -0.407337       -11.0842
  38   2.0000      -0.393045       -10.6953
  39   2.0000      -0.392615       -10.6836
  40   2.0000      -0.390491       -10.6258
  41   2.0000      -0.388439       -10.5700
  42   2.0000      -0.374707       -10.1963
  43   2.0000      -0.372466       -10.1353
  44   2.0000      -0.370399       -10.0791
  45   2.0000      -0.369801       -10.0628
  46   2.0000      -0.368459       -10.0263
  47   2.0000      -0.320512        -8.7216
  48   2.0000      -0.300708        -8.1827
  49   2.0000      -0.289714        -7.8835
  50   2.0000      -0.281108        -7.6493
  51   2.0000      -0.268073        -7.2946
  52   2.0000      -0.262325        -7.1382
  53   2.0000      -0.260323        -7.0838
  54   2.0000      -0.248219        -6.7544
  55   2.0000      -0.224989        -6.1223
  56   2.0000      -0.216506        -5.8914
  57   0.0000      -0.050539        -1.3752
  58   0.0000      -0.027679        -0.7532
  59   0.0000      -0.021149        -0.5755
  60   0.0000      -0.005226        -0.1422
  61   0.0000      -0.001622        -0.0441

MULLIKEN ATOMIC CHARGES
-----------------------
   0 Zr:   -1.043358
   1 C :    0.117565
   2 C :    0.307474
   3 C :    0.230666
   4 H :    0.006630
   5 C :    0.159978
   6 H :    0.006618
   7 C :    0.009060
   8 H :   -0.005764
   9 H :    0.017386
  10 C :    0.120281
  11 C :    0.128833
  12 C :    0.226542
  13 H :    0.000165
  14 C :    0.151069
  15 H :   -0.022838
  16 C :    0.126346
  17 H :    0.087197
  18 H :   -0.028086
  19 Cl:   -0.647905
  20 C :    0.063501
  21 C :    0.035827
  22 H :    0.056328
  23 H :   -0.089509
  24 H :   -0.004589
  25 H :   -0.006726
  26 H :   -0.002693
Sum of atomic charges:   -0.0000000

LOEWDIN ATOMIC CHARGES
----------------------
   0 Zr:    0.453566
   1 C :   -0.056935
   2 C :   -0.050829
   3 C :   -0.046575
   4 H :    0.001708
   5 C :   -0.042056
   6 H :    0.008295
   7 C :   -0.078002
   8 H :    0.006333
   9 H :   -0.014281
  10 C :   -0.051905
  11 C :   -0.052936
  12 C :   -0.040629
  13 H :   -0.000035
  14 C :   -0.049063
  15 H :    0.006865
  16 C :   -0.070504
  17 H :    0.005160
  18 H :   -0.011004
  19 Cl:    0.158379
  20 C :    0.049008
  21 C :    0.074906
  22 H :   -0.110013
  23 H :   -0.009615
  24 H :   -0.080292
  25 H :   -0.001259
  26 H :    0.001711

  Mayer bond orders larger than 0.100000
B(  0-Zr,  1-C ) :   0.3275 B(  0-Zr,  2-C ) :   0.3637 B(  0-Zr,  3-C ) :   0.4587
B(  0-Zr,  5-C ) :   0.5491 B(  0-Zr,  7-C ) :   0.4728 B(  0-Zr,  8-H ) :   0.1185
B(  0-Zr, 10-C ) :   0.5359 B(  0-Zr, 11-C ) :   0.3398 B(  0-Zr, 12-C ) :   0.4631
B(  0-Zr, 14-C ) :   0.4622 B(  0-Zr, 15-H ) :   0.1231 B(  0-Zr, 16-C ) :   0.3469
B(  0-Zr, 19-Cl) :   0.5513 B(  0-Zr, 20-C ) :   0.3168 B(  0-Zr, 21-C ) :   0.1803
B(  0-Zr, 23-H ) :   0.9528 B(  1-C ,  2-C ) :   1.1466 B(  1-C ,  3-C ) :   1.0613
B(  1-C , 25-H ) :   1.0428 B(  2-C ,  4-H ) :   1.0081 B(  2-C ,  5-C ) :   0.9523
B(  2-C , 10-C ) :   0.1014 B(  3-C ,  6-H ) :   1.0050 B(  3-C ,  7-C ) :   1.0466
B(  3-C , 19-Cl) :  -0.1061 B(  5-C ,  7-C ) :   1.0868 B(  5-C ,  8-H ) :   1.0414
B(  7-C ,  9-H ) :   1.0445 B(  9-H , 19-Cl) :   0.1182 B( 10-C , 11-C ) :   1.1441
B( 10-C , 12-C ) :   0.9739 B( 10-C , 26-H ) :   1.0487 B( 11-C , 13-H ) :   1.0438
B( 11-C , 14-C ) :   1.0613 B( 12-C , 15-H ) :   1.0449 B( 12-C , 16-C ) :   1.0526
B( 14-C , 16-C ) :   1.1128 B( 14-C , 17-H ) :   0.9773 B( 14-C , 19-Cl) :  -0.1518
B( 16-C , 18-H ) :   1.0379 B( 18-H , 19-Cl) :   0.1486 B( 20-C , 21-C ) :   2.1240
B( 20-C , 22-H ) :   1.1470 B( 20-C , 24-H ) :  -0.2865 B( 21-C , 22-H ) :  -0.1744
B( 21-C , 24-H ) :   1.3004

Dispersion correction           -0.048077183
FINAL SINGLE POINT ENERGY      -972.691705022192

DIPOLE MOMENT
-------------
                                X             Y             Z
Electronic contribution:      0.48130       2.13981       2.48028
Nuclear contribution   :     -0.31433      -2.93943      -1.59819
                        -----------------------------------------
Total Dipole Moment    :      0.16698      -0.79962       0.88209
                        -----------------------------------------
Magnitude (a.u.)       :      1.20223
Magnitude (Debye)      :      3.05583

Rotational constants in cm-1:     0.021527     0.019953     0.016159
Rotational constants in MHz :   645.375909   598.178243   484.447118

                             ****ORCA TERMINATED NORMALLY****
TOTAL RUN TIME: 0 days 0 hours 8 minutes 3 seconds 742 msec
