                         Program Version 4.2.0 -  RELEASE  -
|  1> #
|  2> # TMB06_C1 TPSSh-D3BJ/Def2-TZVPPD
|  3> #
|  4> ! tpssh d3bj def2-tzvppd def2/jk grid4 nofinalgrid
|  5>
|  6> *xyz -2 1
|  7> C       -4.922177    0.231539    2.107663
|  8> C       -4.446966   -0.260950    0.727306
|  9> O       -4.786048   -1.445661    0.381045
| 10> O       -3.774664    0.534657    0.034272
| 11> C        2.853834    2.539483    0.111094
| 12> S        1.699014    2.002949   -1.213407
| 13> C        2.621388   -0.654255    2.558361
| 14> S        1.079319    0.109893    2.243750
| 15> C        3.475179   -0.966107    1.545638
| 16> S        3.017258   -0.732048   -0.112289
| 17> C       -0.719852   -2.060810   -2.434513
| 18> S        0.476784   -0.759924   -2.482057
| 19> C       -1.165423   -2.576996   -1.263023
| 20> S       -0.426778   -2.115489    0.280596
| 21> W        0.581769    0.074169   -0.056710
| 22> O       -3.686516    3.100880   -0.970074
| 23> C       -0.958024    1.126222    0.768552
| 24> C       -1.050846    1.201510   -0.527136
| 25> H       -4.399031   -0.338057    2.886550
| 26> H       -4.651123    1.285347    2.215183
| 27> H        2.286624    2.922259    0.966567
| 28> H        3.439558    1.684807    0.443645
| 29> H       -3.719098    2.271105   -0.448699
| 30> H       -4.432659    3.004669   -1.574445
| 31> H       -1.423366    1.443209    1.691261
| 32> H       -1.628538    1.662411   -1.315772
| 33> H       -1.080680   -2.444086   -3.386693
| 34> H       -2.006521   -3.265324   -1.212989
| 35> H        3.558044    3.288012   -0.266819
| 36> H        2.852091   -0.869929    3.599516
| 37> H        4.480661   -1.317935    1.766923
| 38> H       -6.001258    0.102048    2.241238
| 39> *
| 40>
| 41> %maxcore 5000
| 42>
| 43> %pal
| 44> nprocs = 24
| 45> end
| 46>
| 47>
| 48>                          ****END OF INPUT****

CARTESIAN COORDINATES (ANGSTROEM)
---------------------------------
  C     -4.922177    0.231539    2.107663
  C     -4.446966   -0.260950    0.727306
  O     -4.786048   -1.445661    0.381045
  O     -3.774664    0.534657    0.034272
  C      2.853834    2.539483    0.111094
  S      1.699014    2.002949   -1.213407
  C      2.621388   -0.654255    2.558361
  S      1.079319    0.109893    2.243750
  C      3.475179   -0.966107    1.545638
  S      3.017258   -0.732048   -0.112289
  C     -0.719852   -2.060810   -2.434513
  S      0.476784   -0.759924   -2.482057
  C     -1.165423   -2.576996   -1.263023
  S     -0.426778   -2.115489    0.280596
  W      0.581769    0.074169   -0.056710
  O     -3.686516    3.100880   -0.970074
  C     -0.958024    1.126222    0.768552
  C     -1.050846    1.201510   -0.527136
  H     -4.399031   -0.338057    2.886550
  H     -4.651123    1.285347    2.215183
  H      2.286624    2.922259    0.966567
  H      3.439558    1.684807    0.443645
  H     -3.719098    2.271105   -0.448699
  H     -4.432659    3.004669   -1.574445
  H     -1.423366    1.443209    1.691261
  H     -1.628538    1.662411   -1.315772
  H     -1.080680   -2.444086   -3.386693
  H     -2.006521   -3.265324   -1.212989
  H      3.558044    3.288012   -0.266819
  H      2.852091   -0.869929    3.599516
  H      4.480661   -1.317935    1.766923
  H     -6.001258    0.102048    2.241238

 Total Charge           Charge          ....   -2
 Multiplicity           Mult            ....    1
 Number of Electrons    NEL             ....  188
 Basis Dimension        Dim             .... 1005

ORBITAL ENERGIES
----------------

  NO   OCC          E(Eh)            E(eV)
   0   2.0000     -88.505799     -2408.3652
   1   2.0000     -88.483291     -2407.7528
   2   2.0000     -88.470636     -2407.4084
   3   2.0000     -88.461345     -2407.1556
   4   2.0000     -88.458940     -2407.0901
   5   2.0000     -18.822042      -512.1738
   6   2.0000     -18.750021      -510.2140
   7   2.0000     -18.736362      -509.8423
   8   2.0000      -9.946371      -270.6545
   9   2.0000      -9.942850      -270.5587
  10   2.0000      -9.932113      -270.2665
  11   2.0000      -9.920256      -269.9439
  12   2.0000      -9.910199      -269.6702
  13   2.0000      -9.905618      -269.5456
  14   2.0000      -9.895709      -269.2759
  15   2.0000      -9.893095      -269.2048
  16   2.0000      -9.882754      -268.9234
  17   2.0000      -7.651584      -208.2102
  18   2.0000      -7.629958      -207.6217
  19   2.0000      -7.617119      -207.2724
  20   2.0000      -7.608028      -207.0250
  21   2.0000      -7.605132      -206.9462
  22   2.0000      -5.601093      -152.4135
  23   2.0000      -5.597623      -152.3191
  24   2.0000      -5.595121      -152.2510
  25   2.0000      -5.579850      -151.8354
  26   2.0000      -5.575239      -151.7100
  27   2.0000      -5.573638      -151.6664
  28   2.0000      -5.566897      -151.4830
  29   2.0000      -5.562433      -151.3615
  30   2.0000      -5.560967      -151.3216
  31   2.0000      -5.558718      -151.2604
  32   2.0000      -5.555330      -151.1682
  33   2.0000      -5.553752      -151.1253
  34   2.0000      -5.550500      -151.0368
  35   2.0000      -5.550433      -151.0350
  36   2.0000      -5.548566      -150.9842
  37   2.0000      -2.730209       -74.2928
  38   2.0000      -1.388169       -37.7740
  39   2.0000      -1.384787       -37.6820
  40   2.0000      -1.378942       -37.5229
  41   2.0000      -0.756445       -20.5839
  42   2.0000      -0.745162       -20.2769
  43   2.0000      -0.654405       -17.8073
  44   2.0000      -0.591288       -16.0898
  45   2.0000      -0.554935       -15.1006
  46   2.0000      -0.522720       -14.2239
  47   2.0000      -0.514786       -14.0080
  48   2.0000      -0.494419       -13.4538
  49   2.0000      -0.469394       -12.7729
  50   2.0000      -0.459626       -12.5071
  51   2.0000      -0.426061       -11.5937
  52   2.0000      -0.396261       -10.7828
  53   2.0000      -0.374029       -10.1779
  54   2.0000      -0.321912        -8.7597
  55   2.0000      -0.305617        -8.3163
  56   2.0000      -0.282836        -7.6964
  57   2.0000      -0.279437        -7.6039
  58   2.0000      -0.258056        -7.0221
  59   2.0000      -0.241080        -6.5601
  60   2.0000      -0.237865        -6.4726
  61   2.0000      -0.225313        -6.1311
  62   2.0000      -0.205585        -5.5942
  63   2.0000      -0.197283        -5.3683
  64   2.0000      -0.190929        -5.1954
  65   2.0000      -0.186993        -5.0883
  66   2.0000      -0.177284        -4.8241
  67   2.0000      -0.169694        -4.6176
  68   2.0000      -0.154965        -4.2168
  69   2.0000      -0.139327        -3.7913
  70   2.0000      -0.136109        -3.7037
  71   2.0000      -0.128260        -3.4901
  72   2.0000      -0.119467        -3.2509
  73   2.0000      -0.114403        -3.1131
  74   2.0000      -0.110852        -3.0164
  75   2.0000      -0.103024        -2.8034
  76   2.0000      -0.097942        -2.6651
  77   2.0000      -0.089661        -2.4398
  78   2.0000      -0.078839        -2.1453
  79   2.0000      -0.071884        -1.9561
  80   2.0000      -0.066479        -1.8090
  81   2.0000      -0.063289        -1.7222
  82   2.0000      -0.050866        -1.3841
  83   2.0000      -0.045476        -1.2375
  84   2.0000      -0.030917        -0.8413
  85   2.0000      -0.023221        -0.6319
  86   2.0000      -0.019876        -0.5409
  87   2.0000       0.004023         0.1095
  88   2.0000       0.007048         0.1918
  89   2.0000       0.014807         0.4029
  90   2.0000       0.020615         0.5610
  91   2.0000       0.024215         0.6589
  92   2.0000       0.039227         1.0674
  93   2.0000       0.049492         1.3468
  94   0.0000       0.106112         2.8875
  95   0.0000       0.145151         3.9498
  96   0.0000       0.155741         4.2379
  97   0.0000       0.172073         4.6824
  98   0.0000       0.174064         4.7365

MULLIKEN ATOMIC CHARGES
-----------------------
   0 C :   -0.213062
   1 C :    0.678294
   2 O :   -0.844062
   3 O :   -0.820110
   4 C :    0.090297
   5 S :   -0.602978
   6 C :    0.223571
   7 S :   -0.528390
   8 C :    0.172907
   9 S :   -0.513563
  10 C :    0.249743
  11 S :   -0.568754
  12 C :    0.230480
  13 S :   -0.506463
  14 W :   -0.008870
  15 O :   -0.583463
  16 C :    0.099461
  17 C :    0.560530
  18 H :    0.021239
  19 H :    0.072412
  20 H :    0.080789
  21 H :    0.052150
  22 H :    0.517293
  23 H :    0.119973
  24 H :   -0.018399
  25 H :   -0.103685
  26 H :    0.005486
  27 H :    0.005401
  28 H :    0.057438
  29 H :    0.032196
  30 H :   -0.009783
  31 H :    0.051920
Sum of atomic charges:   -2.0000000

LOEWDIN ATOMIC CHARGES
----------------------
   0 C :    0.160198
   1 C :   -0.676883
   2 O :   -0.111671
   3 O :   -0.058778
   4 C :   -0.321016
   5 S :    0.431870
   6 C :   -0.545119
   7 S :    0.629942
   8 C :   -0.581860
   9 S :    0.524559
  10 C :   -0.580268
  11 S :    0.455943
  12 C :   -0.540733
  13 S :    0.543018
  14 W :    0.068777
  15 O :    0.364247
  16 C :   -0.204316
  17 C :   -0.168590
  18 H :   -0.031699
  19 H :   -0.039478
  20 H :   -0.086446
  21 H :   -0.152683
  22 H :   -0.280622
  23 H :   -0.226579
  24 H :   -0.058739
  25 H :   -0.050856
  26 H :   -0.086136
  27 H :   -0.073791
  28 H :   -0.092487
  29 H :   -0.088636
  30 H :   -0.080016
  31 H :   -0.041151

  Mayer bond orders larger than 0.100000
B(  0-C ,  1-C ) :   0.9672 B(  0-C , 18-H ) :   1.0044 B(  0-C , 19-H ) :   1.0114
B(  0-C , 31-H ) :   1.0127 B(  1-C ,  2-O ) :   1.2202 B(  1-C ,  3-O ) :   1.3174
B(  4-C ,  5-S ) :   0.7101 B(  4-C ,  9-S ) :  -0.1094 B(  4-C , 20-H ) :   0.9995
B(  4-C , 21-H ) :   0.9600 B(  4-C , 28-H ) :   0.9932 B(  5-S , 14-W ) :   0.9360
B(  5-S , 16-C ) :  -0.1082 B(  6-C ,  7-S ) :   0.8693 B(  6-C ,  8-C ) :   1.4323
B(  6-C , 29-H ) :   1.0887 B(  7-S , 14-W ) :   1.1338 B(  8-C ,  9-S ) :   0.9417
B(  8-C , 30-H ) :   1.1192 B(  9-S , 14-W ) :   0.9162 B( 10-C , 11-S ) :   0.9096
B( 10-C , 12-C ) :   1.4481 B( 10-C , 26-H ) :   1.0909 B( 10-C , 27-H ) :  -0.1212
B( 11-S , 14-W ) :   0.9527 B( 11-S , 17-C ) :  -0.1515 B( 12-C , 13-S ) :   0.8470
B( 12-C , 27-H ) :   1.1332 B( 13-S , 14-W ) :   1.1055 B( 14-W , 16-C ) :   1.0683
B( 14-W , 17-C ) :   1.0550 B( 15-O , 22-H ) :   0.6064 B( 15-O , 23-H ) :   1.0654
B( 16-C , 17-C ) :   1.1613 B( 16-C , 24-H ) :   1.0244 B( 17-C , 25-H ) :   1.0357

Dispersion correction           -0.067820691
FINAL SINGLE POINT ENERGY     -2635.762021177075

DIPOLE MOMENT
-------------
                                X             Y             Z
Electronic contribution:     93.04808       4.27088     -11.92810
Nuclear contribution   :    -89.05733      -3.76163      13.00017
                        -----------------------------------------
Total Dipole Moment    :      3.99076       0.50925       1.07207
                        -----------------------------------------
Magnitude (a.u.)       :      4.16351
Magnitude (Debye)      :     10.58279

Rotational constants in cm-1:     0.010716     0.005373     0.005252
Rotational constants in MHz :   321.254043   161.065395   157.440366

                             ****ORCA TERMINATED NORMALLY****
TOTAL RUN TIME: 0 days 0 hours 12 minutes 38 seconds 753 msec
