                         Program Version 4.2.0 -  RELEASE  -
|  1> #
|  2> # TMB06_T1 TPSSh-D3BJ/Def2-TZVPPD
|  3> #
|  4> ! tpssh d3bj def2-tzvppd def2/jk grid4 nofinalgrid
|  5>
|  6> *xyz -2 1
|  7> C       -5.371545   -2.136160    0.336278
|  8> C       -4.697063   -0.763740    0.262018
|  9> O       -4.978822    0.003309   -0.707502
| 10> O       -3.902613   -0.505987    1.212120
| 11> C        2.635057   -0.678655    2.396830
| 12> S        2.063323    1.004526    1.938677
| 13> C        2.314937   -2.581636   -1.299530
| 14> S        0.864820   -2.286095   -0.358137
| 15> C        3.240953   -1.614445   -1.507242
| 16> S        2.972432   -0.000985   -0.910324
| 17> C       -0.891125    2.751712   -1.395439
| 18> S        0.528832    2.543841   -0.360303
| 19> C       -1.489329    1.702419   -2.015371
| 20> S       -0.828634    0.070077   -1.896647
| 21> W        0.627788    0.033115    0.107608
| 22> O       -2.320739    1.386691    1.151938
| 23> C       -0.689027   -0.837880    1.297595
| 24> C       -0.745952    0.472117    1.605961
| 25> H       -4.850130   -2.819358   -0.346804
| 26> H       -5.250819   -2.525653    1.350280
| 27> H        1.778524   -1.298220    2.681124
| 28> H        3.117621   -1.144410    1.536216
| 29> H       -3.029141    0.618126    1.100277
| 30> H       -2.171098    1.699602    0.245945
| 31> H       -1.140104   -1.782909    1.572954
| 32> H       -0.640990    1.084034    2.487860
| 33> H       -1.256518    3.767648   -1.529996
| 34> H       -2.404891    1.822493   -2.590760
| 35> H        3.371580   -0.608085    3.204035
| 36> H        2.423780   -3.583247   -1.710229
| 37> H        4.191166   -1.850203   -1.981855
| 38> H       -6.431678   -2.086675    0.066661
| 39> *
| 40>
| 41> %maxcore 5000
| 42>
| 43> %pal
| 44> nprocs = 24
| 45> end
| 46>
| 47>
| 48>                          ****END OF INPUT****

CARTESIAN COORDINATES (ANGSTROEM)
---------------------------------
  C     -5.371545   -2.136160    0.336278
  C     -4.697063   -0.763740    0.262018
  O     -4.978822    0.003309   -0.707502
  O     -3.902613   -0.505987    1.212120
  C      2.635057   -0.678655    2.396830
  S      2.063323    1.004526    1.938677
  C      2.314937   -2.581636   -1.299530
  S      0.864820   -2.286095   -0.358137
  C      3.240953   -1.614445   -1.507242
  S      2.972432   -0.000985   -0.910324
  C     -0.891125    2.751712   -1.395439
  S      0.528832    2.543841   -0.360303
  C     -1.489329    1.702419   -2.015371
  S     -0.828634    0.070077   -1.896647
  W      0.627788    0.033115    0.107608
  O     -2.320739    1.386691    1.151938
  C     -0.689027   -0.837880    1.297595
  C     -0.745952    0.472117    1.605961
  H     -4.850130   -2.819358   -0.346804
  H     -5.250819   -2.525653    1.350280
  H      1.778524   -1.298220    2.681124
  H      3.117621   -1.144410    1.536216
  H     -3.029141    0.618126    1.100277
  H     -2.171098    1.699602    0.245945
  H     -1.140104   -1.782909    1.572954
  H     -0.640990    1.084034    2.487860
  H     -1.256518    3.767648   -1.529996
  H     -2.404891    1.822493   -2.590760
  H      3.371580   -0.608085    3.204035
  H      2.423780   -3.583247   -1.710229
  H      4.191166   -1.850203   -1.981855
  H     -6.431678   -2.086675    0.066661

 Total Charge           Charge          ....   -2
 Multiplicity           Mult            ....    1
 Number of Electrons    NEL             ....  188
 Basis Dimension        Dim             .... 1005

ORBITAL ENERGIES
----------------

  NO   OCC          E(Eh)            E(eV)
   0   2.0000     -88.485929     -2407.8245
   1   2.0000     -88.469371     -2407.3740
   2   2.0000     -88.462740     -2407.1935
   3   2.0000     -88.454634     -2406.9730
   4   2.0000     -88.449760     -2406.8403
   5   2.0000     -18.817609      -512.0532
   6   2.0000     -18.776359      -510.9307
   7   2.0000     -18.760274      -510.4930
   8   2.0000      -9.968633      -271.2603
   9   2.0000      -9.926405      -270.1112
  10   2.0000      -9.918452      -269.8948
  11   2.0000      -9.912666      -269.7374
  12   2.0000      -9.910390      -269.6754
  13   2.0000      -9.909168      -269.6422
  14   2.0000      -9.906436      -269.5678
  15   2.0000      -9.897752      -269.3315
  16   2.0000      -9.874034      -268.6861
  17   2.0000      -7.632014      -207.6777
  18   2.0000      -7.615955      -207.2407
  19   2.0000      -7.609025      -207.0521
  20   2.0000      -7.601026      -206.8344
  21   2.0000      -7.596646      -206.7152
  22   2.0000      -5.581737      -151.8868
  23   2.0000      -5.577496      -151.7714
  24   2.0000      -5.575830      -151.7261
  25   2.0000      -5.565953      -151.4573
  26   2.0000      -5.561135      -151.3262
  27   2.0000      -5.559660      -151.2860
  28   2.0000      -5.559122      -151.2714
  29   2.0000      -5.554547      -151.1469
  30   2.0000      -5.552375      -151.0878
  31   2.0000      -5.551337      -151.0595
  32   2.0000      -5.547432      -150.9533
  33   2.0000      -5.546350      -150.9238
  34   2.0000      -5.544350      -150.8694
  35   2.0000      -5.542928      -150.8307
  36   2.0000      -5.538358      -150.7064
  37   2.0000      -2.712037       -73.7983
  38   2.0000      -1.371120       -37.3101
  39   2.0000      -1.365745       -37.1638
  40   2.0000      -1.362908       -37.0866
  41   2.0000      -0.776443       -21.1281
  42   2.0000      -0.743417       -20.2294
  43   2.0000      -0.681982       -18.5577
  44   2.0000      -0.576289       -15.6816
  45   2.0000      -0.555543       -15.1171
  46   2.0000      -0.512465       -13.9449
  47   2.0000      -0.499156       -13.5827
  48   2.0000      -0.487904       -13.2765
  49   2.0000      -0.477649       -12.9975
  50   2.0000      -0.456518       -12.4225
  51   2.0000      -0.412423       -11.2226
  52   2.0000      -0.392786       -10.6883
  53   2.0000      -0.364718        -9.9245
  54   2.0000      -0.314260        -8.5515
  55   2.0000      -0.299161        -8.1406
  56   2.0000      -0.295077        -8.0295
  57   2.0000      -0.281016        -7.6468
  58   2.0000      -0.245671        -6.6850
  59   2.0000      -0.243758        -6.6330
  60   2.0000      -0.227281        -6.1846
  61   2.0000      -0.225975        -6.1491
  62   2.0000      -0.204177        -5.5559
  63   2.0000      -0.201241        -5.4761
  64   2.0000      -0.194460        -5.2915
  65   2.0000      -0.188554        -5.1308
  66   2.0000      -0.181439        -4.9372
  67   2.0000      -0.178560        -4.8589
  68   2.0000      -0.154200        -4.1960
  69   2.0000      -0.144269        -3.9258
  70   2.0000      -0.139405        -3.7934
  71   2.0000      -0.124205        -3.3798
  72   2.0000      -0.122960        -3.3459
  73   2.0000      -0.115164        -3.1338
  74   2.0000      -0.110941        -3.0189
  75   2.0000      -0.105766        -2.8780
  76   2.0000      -0.092581        -2.5193
  77   2.0000      -0.086162        -2.3446
  78   2.0000      -0.075036        -2.0418
  79   2.0000      -0.058276        -1.5858
  80   2.0000      -0.052737        -1.4350
  81   2.0000      -0.048839        -1.3290
  82   2.0000      -0.031634        -0.8608
  83   2.0000      -0.030617        -0.8331
  84   2.0000      -0.015039        -0.4092
  85   2.0000      -0.012455        -0.3389
  86   2.0000      -0.010236        -0.2785
  87   2.0000      -0.008283        -0.2254
  88   2.0000      -0.002225        -0.0605
  89   2.0000       0.012465         0.3392
  90   2.0000       0.015517         0.4222
  91   2.0000       0.019183         0.5220
  92   2.0000       0.039383         1.0717
  93   2.0000       0.057411         1.5622
  94   0.0000       0.127637         3.4732
  95   0.0000       0.162197         4.4136
  96   0.0000       0.168483         4.5847
  97   0.0000       0.175671         4.7802
  98   0.0000       0.178473         4.8565

MULLIKEN ATOMIC CHARGES
-----------------------
   0 C :   -0.290005
   1 C :    0.795339
   2 O :   -0.800504
   3 O :   -0.700557
   4 C :    0.015047
   5 S :   -0.626565
   6 C :    0.207881
   7 S :   -0.536146
   8 C :    0.155875
   9 S :   -0.478626
  10 C :    0.239957
  11 S :   -0.539551
  12 C :    0.156902
  13 S :   -0.486802
  14 W :   -0.013394
  15 O :   -0.671257
  16 C :   -0.073697
  17 C :    0.688738
  18 H :   -0.006341
  19 H :    0.084306
  20 H :    0.133293
  21 H :    0.096611
  22 H :    0.542387
  23 H :    0.285248
  24 H :   -0.150448
  25 H :   -0.173707
  26 H :    0.001288
  27 H :   -0.006241
  28 H :    0.079509
  29 H :    0.029261
  30 H :   -0.011198
  31 H :    0.053397
Sum of atomic charges:   -2.0000000

LOEWDIN ATOMIC CHARGES
----------------------
   0 C :    0.165576
   1 C :   -0.640617
   2 O :   -0.068924
   3 O :    0.040994
   4 C :   -0.312737
   5 S :    0.410585
   6 C :   -0.561600
   7 S :    0.613701
   8 C :   -0.592997
   9 S :    0.504267
  10 C :   -0.596364
  11 S :    0.486318
  12 C :   -0.578234
  13 S :    0.543526
  14 W :    0.103184
  15 O :    0.341899
  16 C :   -0.233900
  17 C :   -0.244960
  18 H :   -0.024293
  19 H :   -0.037070
  20 H :   -0.091710
  21 H :   -0.129922
  22 H :   -0.283906
  23 H :   -0.228176
  24 H :   -0.072165
  25 H :   -0.057492
  26 H :   -0.081188
  27 H :   -0.070733
  28 H :   -0.092147
  29 H :   -0.091303
  30 H :   -0.084702
  31 H :   -0.034909

  Mayer bond orders larger than 0.100000
B(  0-C ,  1-C ) :   0.9734 B(  0-C , 18-H ) :   1.0120 B(  0-C , 19-H ) :   1.0104
B(  0-C , 31-H ) :   1.0152 B(  1-C ,  2-O ) :   1.2606 B(  1-C ,  3-O ) :   1.2042
B(  3-O , 22-H ) :   0.1177 B(  4-C ,  5-S ) :   0.7293 B(  4-C , 20-H ) :   1.0029
B(  4-C , 21-H ) :   0.9461 B(  4-C , 28-H ) :   0.9772 B(  5-S , 14-W ) :   0.8596
B(  6-C ,  7-S ) :   0.8683 B(  6-C ,  8-C ) :   1.4715 B(  6-C , 29-H ) :   1.0921
B(  6-C , 30-H ) :  -0.1036 B(  7-S , 14-W ) :   1.0667 B(  8-C ,  9-S ) :   0.9345
B(  8-C , 30-H ) :   1.1336 B(  9-S , 14-W ) :   0.9065 B( 10-C , 11-S ) :   0.9363
B( 10-C , 12-C ) :   1.3006 B( 10-C , 26-H ) :   1.1455 B( 10-C , 27-H ) :  -0.1706
B( 11-S , 14-W ) :   0.8943 B( 12-C , 13-S ) :   0.9460 B( 12-C , 26-H ) :  -0.1221
B( 12-C , 27-H ) :   1.1811 B( 13-S , 14-W ) :   0.9977 B( 14-W , 16-C ) :   1.2798
B( 14-W , 17-C ) :   0.8535 B( 15-O , 16-C ) :   0.1083 B( 15-O , 17-C ) :   0.1385
B( 15-O , 22-H ) :   0.4565 B( 15-O , 23-H ) :   0.8247 B( 16-C , 17-C ) :   1.0528
B( 16-C , 24-H ) :   0.9844 B( 17-C , 25-H ) :   1.0814

Dispersion correction           -0.071283424
FINAL SINGLE POINT ENERGY     -2635.753728973809

DIPOLE MOMENT
-------------
                                X             Y             Z
Electronic contribution:     97.91109       9.39604      10.82177
Nuclear contribution   :    -95.08812     -10.49452     -10.64317
                        -----------------------------------------
Total Dipole Moment    :      2.82296      -1.09848       0.17860
                        -----------------------------------------
Magnitude (a.u.)       :      3.03442
Magnitude (Debye)      :      7.71288

Rotational constants in cm-1:     0.011727     0.005648     0.005281
Rotational constants in MHz :   351.552196   169.313101   158.324155

                             ****ORCA TERMINATED NORMALLY****
TOTAL RUN TIME: 0 days 0 hours 11 minutes 42 seconds 532 msec
