                         Program Version 4.2.0 -  RELEASE  -
|  1> #
|  2> # TMB01_R1 TPSSh-D3BJ/Def2-TZVPPD
|  3> #
|  4> ! tpssh d3bj def2-tzvppd def2/jk grid4 nofinalgrid
|  5>
|  6> *xyz 0 1
|  7> Zr      -0.000671    0.112924   -0.223454
|  8> C       -2.181938   -0.834851   -1.042825
|  9> C       -1.643164   -1.771750   -0.135830
| 10> C       -2.502306    0.332733   -0.316676
| 11> H       -1.308937   -2.768103   -0.380464
| 12> C       -1.636664   -1.184419    1.151214
| 13> H       -2.895434    1.248967   -0.729119
| 14> C       -2.175001    0.113493    1.036510
| 15> H       -1.306352   -1.655857    2.064126
| 16> H       -2.282924    0.831022    1.835850
| 17> C        1.600796   -1.794999   -0.006343
| 18> C        2.125532   -0.971960   -1.023204
| 19> C        1.653632   -1.076274    1.213076
| 20> H        2.228565   -1.232630   -2.063673
| 21> C        2.505388    0.254502   -0.432287
| 22> H        1.350619   -1.442345    2.182051
| 23> C        2.228391    0.183709    0.945544
| 24> H        2.903936    1.111956   -0.952399
| 25> H        2.382975    0.976423    1.661482
| 26> Cl       0.011968    2.512474    0.074703
| 27> H       -0.001250   -0.010619   -2.053074
| 28> H       -2.330784   -0.986753   -2.099038
| 29> H        1.234974   -2.802168   -0.132604
| 30> *
| 31>
| 32> %maxcore 5000
| 33>
| 34> %pal
| 35> nprocs = 24
| 36> end
| 37>
| 38>
| 39>                          ****END OF INPUT****

CARTESIAN COORDINATES (ANGSTROEM)
---------------------------------
  Zr    -0.000671    0.112924   -0.223454
  C     -2.181938   -0.834851   -1.042825
  C     -1.643164   -1.771750   -0.135830
  C     -2.502306    0.332733   -0.316676
  H     -1.308937   -2.768103   -0.380464
  C     -1.636664   -1.184419    1.151214
  H     -2.895434    1.248967   -0.729119
  C     -2.175001    0.113493    1.036510
  H     -1.306352   -1.655857    2.064126
  H     -2.282924    0.831022    1.835850
  C      1.600796   -1.794999   -0.006343
  C      2.125532   -0.971960   -1.023204
  C      1.653632   -1.076274    1.213076
  H      2.228565   -1.232630   -2.063673
  C      2.505388    0.254502   -0.432287
  H      1.350619   -1.442345    2.182051
  C      2.228391    0.183709    0.945544
  H      2.903936    1.111956   -0.952399
  H      2.382975    0.976423    1.661482
  Cl     0.011968    2.512474    0.074703
  H     -0.001250   -0.010619   -2.053074
  H     -2.330784   -0.986753   -2.099038
  H      1.234974   -2.802168   -0.132604

 Total Charge           Charge          ....    0
 Multiplicity           Mult            ....    1
 Number of Electrons    NEL             ....  100
 Basis Dimension        Dim             ....  664

ORBITAL ENERGIES
----------------

  NO   OCC          E(Eh)            E(eV)
   0   2.0000    -101.323432     -2757.1508
   1   2.0000     -10.134528      -275.7745
   2   2.0000     -10.134014      -275.7605
   3   2.0000     -10.132583      -275.7216
   4   2.0000     -10.132463      -275.7183
   5   2.0000     -10.132253      -275.7126
   6   2.0000     -10.131837      -275.7013
   7   2.0000     -10.131298      -275.6866
   8   2.0000     -10.130996      -275.6784
   9   2.0000     -10.127079      -275.5718
  10   2.0000     -10.126846      -275.5655
  11   2.0000      -9.325911      -253.7709
  12   2.0000      -7.068536      -192.3447
  13   2.0000      -7.067720      -192.3224
  14   2.0000      -7.066235      -192.2820
  15   2.0000      -2.077752       -56.5385
  16   2.0000      -1.228920       -33.4406
  17   2.0000      -1.226628       -33.3782
  18   2.0000      -1.217522       -33.1305
  19   2.0000      -0.877951       -23.8903
  20   2.0000      -0.867890       -23.6165
  21   2.0000      -0.737926       -20.0800
  22   2.0000      -0.708008       -19.2659
  23   2.0000      -0.707101       -19.2412
  24   2.0000      -0.706042       -19.2124
  25   2.0000      -0.703106       -19.1325
  26   2.0000      -0.546951       -14.8833
  27   2.0000      -0.542366       -14.7585
  28   2.0000      -0.539030       -14.6677
  29   2.0000      -0.538207       -14.6453
  30   2.0000      -0.529881       -14.4188
  31   2.0000      -0.523319       -14.2402
  32   2.0000      -0.411104       -11.1867
  33   2.0000      -0.397158       -10.8072
  34   2.0000      -0.396622       -10.7926
  35   2.0000      -0.394672       -10.7396
  36   2.0000      -0.393795       -10.7157
  37   2.0000      -0.378633       -10.3031
  38   2.0000      -0.377162       -10.2631
  39   2.0000      -0.376607       -10.2480
  40   2.0000      -0.374117       -10.1803
  41   2.0000      -0.373484       -10.1630
  42   2.0000      -0.311826        -8.4852
  43   2.0000      -0.295352        -8.0369
  44   2.0000      -0.286712        -7.8018
  45   2.0000      -0.268096        -7.2953
  46   2.0000      -0.262418        -7.1408
  47   2.0000      -0.261266        -7.1094
  48   2.0000      -0.244152        -6.6437
  49   2.0000      -0.233406        -6.3513
  50   0.0000      -0.073751        -2.0069
  51   0.0000      -0.023808        -0.6478
  52   0.0000      -0.015325        -0.4170
  53   0.0000      -0.006170        -0.1679
  54   0.0000      -0.003399        -0.0925

MULLIKEN ATOMIC CHARGES
-----------------------
   0 Zr:   -0.048314
   1 C :    0.168382
   2 C :    0.187647
   3 C :    0.087546
   4 H :    0.000851
   5 C :   -0.058378
   6 H :   -0.023320
   7 C :    0.192808
   8 H :   -0.059021
   9 H :   -0.068567
  10 C :    0.246659
  11 C :    0.121345
  12 C :   -0.077144
  13 H :   -0.023567
  14 C :    0.066285
  15 H :   -0.022489
  16 C :    0.179158
  17 H :   -0.045227
  18 H :   -0.050880
  19 Cl:   -0.574123
  20 H :   -0.190346
  21 H :   -0.013634
  22 H :    0.004328
Sum of atomic charges:    0.0000000

LOEWDIN ATOMIC CHARGES
----------------------
   0 Zr:    0.367408
   1 C :   -0.063796
   2 C :   -0.052545
   3 C :   -0.069825
   4 H :    0.003908
   5 C :   -0.048051
   6 H :    0.004480
   7 C :   -0.057360
   8 H :    0.004501
   9 H :    0.005046
  10 C :   -0.052012
  11 C :   -0.062300
  12 C :   -0.049264
  13 H :   -0.001557
  14 C :   -0.065986
  15 H :    0.003789
  16 C :   -0.062477
  17 H :    0.006752
  18 H :    0.002837
  19 Cl:    0.202037
  20 H :   -0.017410
  21 H :   -0.002014
  22 H :    0.003840

  Mayer bond orders larger than 0.100000
B(  0-Zr,  1-C ) :   0.3284 B(  0-Zr,  2-C ) :   0.3387 B(  0-Zr,  3-C ) :   0.4053
B(  0-Zr,  5-C ) :   0.4583 B(  0-Zr,  7-C ) :   0.3340 B(  0-Zr, 10-C ) :   0.2838
B(  0-Zr, 11-C ) :   0.3117 B(  0-Zr, 12-C ) :   0.5096 B(  0-Zr, 14-C ) :   0.4064
B(  0-Zr, 16-C ) :   0.3457 B(  0-Zr, 19-Cl) :   0.7102 B(  0-Zr, 20-H ) :   0.9149
B(  1-C ,  2-C ) :   1.0954 B(  1-C ,  3-C ) :   1.0690 B(  1-C , 21-H ) :   1.0502
B(  2-C ,  4-H ) :   1.0651 B(  2-C ,  5-C ) :   1.0061 B(  3-C ,  6-H ) :   1.0382
B(  3-C ,  7-C ) :   1.1512 B(  5-C ,  7-C ) :   1.0441 B(  5-C ,  8-H ) :   1.1606
B(  5-C , 12-C ) :   0.1252 B(  7-C ,  9-H ) :   1.0588 B( 10-C , 11-C ) :   1.0690
B( 10-C , 12-C ) :   0.9941 B( 10-C , 22-H ) :   1.0798 B( 11-C , 13-H ) :   1.0739
B( 11-C , 14-C ) :   1.1089 B( 12-C , 15-H ) :   1.1379 B( 12-C , 16-C ) :   0.9962
B( 14-C , 16-C ) :   1.1755 B( 14-C , 17-H ) :   1.0425 B( 16-C , 18-H ) :   1.0648

Dispersion correction           -0.038239436
FINAL SINGLE POINT ENERGY      -895.326344680322

DIPOLE MOMENT
-------------
                                X             Y             Z
Electronic contribution:     -0.01635      13.11846     -12.56281
Nuclear contribution   :      0.01059     -14.41688      13.08524
                        -----------------------------------------
Total Dipole Moment    :     -0.00576      -1.29841       0.52243
                        -----------------------------------------
Magnitude (a.u.)       :      1.39959
Magnitude (Debye)      :      3.55747

Rotational constants in cm-1:     0.033538     0.025044     0.018059
Rotational constants in MHz :  1005.445647   750.792016   541.402542

                             ****ORCA TERMINATED NORMALLY****
TOTAL RUN TIME: 0 days 0 hours 4 minutes 32 seconds 606 msec
