                         Program Version 4.2.0 -  RELEASE  -
|  1> #
|  2> # TMB08_T1 TPSSh-D3BJ/Def2-TZVPPD
|  3> #
|  4> ! tpssh d3bj def2-tzvppd def2/jk grid4 nofinalgrid
|  5>
|  6> *xyz -1 1
|  7> O       -0.864683   -0.641223    1.501083
|  8> Mo       0.288309   -0.030923   -0.005993
|  9> O       -1.184159   -0.828813   -0.891579
| 10> S        2.210721   -0.462566    1.360243
| 11> C        3.288131   -1.501862    0.490518
| 12> C        2.967024   -1.951648   -0.740634
| 13> S        1.453819   -1.539049   -1.466752
| 14> S        0.162904    2.082815    1.150192
| 15> C        0.198674    3.373932   -0.002877
| 16> C        0.341525    3.101047   -1.316307
| 17> S        0.442237    1.474962   -1.896418
| 18> S       -2.702756   -1.277235    0.090908
| 19> C       -3.341924    0.299743    0.636465
| 20> H       -3.337931    0.314090    1.732942
| 21> H       -2.648387    1.079744    0.273451
| 22> H       -4.358042    0.459892    0.247281
| 23> C       -3.587204   -1.408361   -1.466934
| 24> H       -3.173718   -2.281309   -1.989593
| 25> H       -4.662596   -1.555426   -1.282985
| 26> H       -3.398030   -0.511824   -2.074907
| 27> C       -0.765264   -0.491871    2.877457
| 28> H       -0.827293    0.572940    3.181404
| 29> H       -1.595209   -1.039646    3.369476
| 30> H        0.192972   -0.897436    3.256104
| 31> H        3.640777   -2.597035   -1.314559
| 32> H        4.229728   -1.767232    0.982509
| 33> H        0.401774    3.897233   -2.066529
| 34> H        0.141166    4.396366    0.384198
| 35> *
| 36>
| 37> %maxcore 5000
| 38>
| 39> %pal
| 40> nprocs = 24
| 41> end
| 42>
| 43>
| 44>                          ****END OF INPUT****

CARTESIAN COORDINATES (ANGSTROEM)
---------------------------------
  O     -0.864683   -0.641223    1.501083
  Mo     0.288309   -0.030923   -0.005993
  O     -1.184159   -0.828813   -0.891579
  S      2.210721   -0.462566    1.360243
  C      3.288131   -1.501862    0.490518
  C      2.967024   -1.951648   -0.740634
  S      1.453819   -1.539049   -1.466752
  S      0.162904    2.082815    1.150192
  C      0.198674    3.373932   -0.002877
  C      0.341525    3.101047   -1.316307
  S      0.442237    1.474962   -1.896418
  S     -2.702756   -1.277235    0.090908
  C     -3.341924    0.299743    0.636465
  H     -3.337931    0.314090    1.732942
  H     -2.648387    1.079744    0.273451
  H     -4.358042    0.459892    0.247281
  C     -3.587204   -1.408361   -1.466934
  H     -3.173718   -2.281309   -1.989593
  H     -4.662596   -1.555426   -1.282985
  H     -3.398030   -0.511824   -2.074907
  C     -0.765264   -0.491871    2.877457
  H     -0.827293    0.572940    3.181404
  H     -1.595209   -1.039646    3.369476
  H      0.192972   -0.897436    3.256104
  H      3.640777   -2.597035   -1.314559
  H      4.229728   -1.767232    0.982509
  H      0.401774    3.897233   -2.066529
  H      0.141166    4.396366    0.384198

 Total Charge           Charge          ....   -1
 Multiplicity           Mult            ....    1
 Number of Electrons    NEL             ....  166
 Basis Dimension        Dim             ....  871

ORBITAL ENERGIES
----------------

  NO   OCC          E(Eh)            E(eV)
   0   2.0000     -88.673694     -2412.9339
   1   2.0000     -88.555469     -2409.7168
   2   2.0000     -88.554092     -2409.6794
   3   2.0000     -88.553030     -2409.6505
   4   2.0000     -88.550971     -2409.5944
   5   2.0000     -18.928016      -515.0575
   6   2.0000     -18.916004      -514.7306
   7   2.0000     -10.045253      -273.3452
   8   2.0000     -10.044726      -273.3309
   9   2.0000     -10.031697      -272.9764
  10   2.0000      -9.995091      -271.9803
  11   2.0000      -9.994681      -271.9691
  12   2.0000      -9.993998      -271.9505
  13   2.0000      -9.993893      -271.9477
  14   2.0000      -7.812929      -212.6006
  15   2.0000      -7.702783      -209.6034
  16   2.0000      -7.701287      -209.5627
  17   2.0000      -7.700004      -209.5278
  18   2.0000      -7.697842      -209.4689
  19   2.0000      -5.762298      -156.8001
  20   2.0000      -5.760195      -156.7429
  21   2.0000      -5.756665      -156.6468
  22   2.0000      -5.652380      -153.8091
  23   2.0000      -5.650888      -153.7685
  24   2.0000      -5.649648      -153.7347
  25   2.0000      -5.647657      -153.6806
  26   2.0000      -5.647589      -153.6787
  27   2.0000      -5.647097      -153.6653
  28   2.0000      -5.646063      -153.6372
  29   2.0000      -5.645702      -153.6274
  30   2.0000      -5.645107      -153.6112
  31   2.0000      -5.644069      -153.5829
  32   2.0000      -5.642527      -153.5410
  33   2.0000      -5.642249      -153.5334
  34   2.0000      -2.414934       -65.7137
  35   2.0000      -1.432544       -38.9815
  36   2.0000      -1.424982       -38.7757
  37   2.0000      -1.414497       -38.4904
  38   2.0000      -0.837633       -22.7931
  39   2.0000      -0.793935       -21.6041
  40   2.0000      -0.684686       -18.6313
  41   2.0000      -0.655256       -17.8304
  42   2.0000      -0.653185       -17.7741
  43   2.0000      -0.600400       -16.3377
  44   2.0000      -0.558062       -15.1856
  45   2.0000      -0.555451       -15.1146
  46   2.0000      -0.521925       -14.2023
  47   2.0000      -0.497908       -13.5488
  48   2.0000      -0.489376       -13.3166
  49   2.0000      -0.478839       -13.0299
  50   2.0000      -0.374346       -10.1865
  51   2.0000      -0.369613       -10.0577
  52   2.0000      -0.353173        -9.6103
  53   2.0000      -0.346617        -9.4319
  54   2.0000      -0.336328        -9.1520
  55   2.0000      -0.322712        -8.7814
  56   2.0000      -0.319433        -8.6922
  57   2.0000      -0.318074        -8.6552
  58   2.0000      -0.306446        -8.3388
  59   2.0000      -0.304518        -8.2864
  60   2.0000      -0.295643        -8.0449
  61   2.0000      -0.275904        -7.5077
  62   2.0000      -0.262413        -7.1406
  63   2.0000      -0.242096        -6.5878
  64   2.0000      -0.228661        -6.2222
  65   2.0000      -0.216754        -5.8982
  66   2.0000      -0.211246        -5.7483
  67   2.0000      -0.200030        -5.4431
  68   2.0000      -0.198247        -5.3946
  69   2.0000      -0.190162        -5.1746
  70   2.0000      -0.177017        -4.8169
  71   2.0000      -0.163238        -4.4419
  72   2.0000      -0.149925        -4.0797
  73   2.0000      -0.146070        -3.9748
  74   2.0000      -0.142791        -3.8856
  75   2.0000      -0.126903        -3.4532
  76   2.0000      -0.114452        -3.1144
  77   2.0000      -0.104141        -2.8338
  78   2.0000      -0.097575        -2.6551
  79   2.0000      -0.092837        -2.5262
  80   2.0000      -0.070638        -1.9222
  81   2.0000      -0.039047        -1.0625
  82   2.0000      -0.032653        -0.8885
  83   0.0000       0.053482         1.4553
  84   0.0000       0.062167         1.6916
  85   0.0000       0.065043         1.7699
  86   0.0000       0.075404         2.0518
  87   0.0000       0.091450         2.4885

MULLIKEN ATOMIC CHARGES
-----------------------
   0 O :   -0.394500
   1 Mo:    0.120329
   2 O :   -0.368004
   3 S :   -0.432902
   4 C :    0.177997
   5 C :    0.253024
   6 S :   -0.428266
   7 S :   -0.486537
   8 C :    0.171056
   9 C :    0.205881
  10 S :   -0.385569
  11 S :   -0.027217
  12 C :    0.099990
  13 H :    0.068183
  14 H :   -0.003507
  15 H :    0.125880
  16 C :   -0.092830
  17 H :    0.076700
  18 H :    0.097888
  19 H :    0.071121
  20 C :   -0.108041
  21 H :    0.075838
  22 H :    0.048956
  23 H :    0.041812
  24 H :    0.016637
  25 H :    0.029964
  26 H :    0.018213
  27 H :    0.027907
Sum of atomic charges:   -1.0000000

LOEWDIN ATOMIC CHARGES
----------------------
   0 O :   -0.521495
   1 Mo:    0.308417
   2 O :   -0.687305
   3 S :    0.565061
   4 C :   -0.601256
   5 C :   -0.605080
   6 S :    0.556082
   7 S :    0.567215
   8 C :   -0.604048
   9 C :   -0.620718
  10 S :    0.535203
  11 S :    1.006356
  12 C :   -0.068306
  13 H :   -0.048402
  14 H :   -0.046358
  15 H :   -0.046074
  16 C :   -0.092946
  17 H :   -0.045885
  18 H :   -0.051926
  19 H :   -0.036010
  20 C :   -0.073649
  21 H :   -0.043365
  22 H :   -0.007357
  23 H :   -0.039558
  24 H :   -0.073710
  25 H :   -0.074487
  26 H :   -0.074827
  27 H :   -0.075574

  Mayer bond orders larger than 0.100000
B(  0-O ,  1-Mo) :   0.5003 B(  0-O , 11-S ) :   0.2014 B(  0-O , 20-C ) :   1.0580
B(  1-Mo,  2-O ) :   0.9052 B(  1-Mo,  3-S ) :   1.3075 B(  1-Mo,  6-S ) :   1.3381
B(  1-Mo,  7-S ) :   1.0876 B(  1-Mo, 10-S ) :   1.1648 B(  1-Mo, 11-S ) :   0.3365
B(  2-O ,  6-S ) :  -0.1164 B(  2-O , 11-S ) :   0.6732 B(  3-S ,  4-C ) :   0.8451
B(  4-C ,  5-C ) :   1.6813 B(  4-C , 24-H ) :  -0.1029 B(  4-C , 25-H ) :   1.0776
B(  5-C ,  6-S ) :   0.8437 B(  5-C , 24-H ) :   1.0797 B(  5-C , 25-H ) :  -0.1028
B(  7-S ,  8-C ) :   0.8777 B(  8-C ,  9-C ) :   1.6739 B(  8-C , 27-H ) :   1.0822
B(  9-C , 10-S ) :   0.8785 B(  9-C , 26-H ) :   1.0555 B( 11-S , 12-C ) :   0.6946
B( 11-S , 14-H ) :   0.1455 B( 11-S , 16-C ) :   0.8588 B( 12-C , 13-H ) :   0.9910
B( 12-C , 14-H ) :   0.9654 B( 12-C , 15-H ) :   0.9585 B( 16-C , 17-H ) :   0.9703
B( 16-C , 18-H ) :   0.9817 B( 16-C , 19-H ) :   0.9972 B( 20-C , 21-H ) :   0.9715
B( 20-C , 22-H ) :   0.9610 B( 20-C , 23-H ) :   0.9868

Dispersion correction           -0.064091955
FINAL SINGLE POINT ENERGY     -2484.776377593107

DIPOLE MOMENT
-------------
                                X             Y             Z
Electronic contribution:     28.06450      -2.39468      -3.80338
Nuclear contribution   :    -30.46451       1.96400       4.17914
                        -----------------------------------------
Total Dipole Moment    :     -2.40001      -0.43067       0.37577
                        -----------------------------------------
Magnitude (a.u.)       :      2.46713
Magnitude (Debye)      :      6.27095

Rotational constants in cm-1:     0.012781     0.009890     0.008747
Rotational constants in MHz :   383.176431   296.486696   262.216571

                             ****ORCA TERMINATED NORMALLY****
TOTAL RUN TIME: 0 days 0 hours 8 minutes 28 seconds 636 msec
