                         Program Version 4.2.0 -  RELEASE  -
|  1> #
|  2> # TMB08_C1 TPSSh-D3BJ/Def2-TZVPPD
|  3> #
|  4> ! tpssh d3bj def2-tzvppd def2/jk grid4 nofinalgrid
|  5>
|  6> *xyz -1 1
|  7> O       -0.906881    0.014085    1.547895
|  8> Mo       0.376053    0.005978   -0.001071
|  9> O       -1.663172   -0.405524   -0.725982
| 10> S        1.900189   -1.271673    1.262125
| 11> C        2.414735   -2.638587    0.321741
| 12> C        1.961707   -2.798175   -0.938062
| 13> S        0.862636   -1.648766   -1.631530
| 14> S        1.558394    1.801029    0.984387
| 15> C        1.596911    3.127556   -0.137889
| 16> C        1.038164    3.004113   -1.358311
| 17> S        0.284978    1.511994   -1.829576
| 18> S       -2.828559   -0.609282    0.265517
| 19> C       -3.471491    1.031204    0.628759
| 20> H       -2.700467    1.513975    1.240208
| 21> H       -3.606824    1.576556   -0.316000
| 22> H       -4.419892    0.937929    1.179101
| 23> C       -4.093537   -1.069425   -0.932883
| 24> H       -3.796770   -2.046338   -1.337942
| 25> H       -5.068961   -1.152599   -0.429186
| 26> H       -4.123504   -0.329731   -1.745777
| 27> C       -0.609178    0.103975    2.901511
| 28> H       -0.060534    1.039756    3.130388
| 29> H       -1.547958    0.094647    3.495802
| 30> H        0.020434   -0.743420    3.237520
| 31> H        2.283338   -3.631534   -1.572173
| 32> H        3.135734   -3.322762    0.781228
| 33> H        1.069667    3.809818   -2.099793
| 34> H        2.115872    4.037362    0.182319
| 35> *
| 36>
| 37> %maxcore 5000
| 38>
| 39> %pal
| 40> nprocs = 24
| 41> end
| 42>
| 43>
| 44>                          ****END OF INPUT****

CARTESIAN COORDINATES (ANGSTROEM)
---------------------------------
  O     -0.906881    0.014085    1.547895
  Mo     0.376053    0.005978   -0.001071
  O     -1.663172   -0.405524   -0.725982
  S      1.900189   -1.271673    1.262125
  C      2.414735   -2.638587    0.321741
  C      1.961707   -2.798175   -0.938062
  S      0.862636   -1.648766   -1.631530
  S      1.558394    1.801029    0.984387
  C      1.596911    3.127556   -0.137889
  C      1.038164    3.004113   -1.358311
  S      0.284978    1.511994   -1.829576
  S     -2.828559   -0.609282    0.265517
  C     -3.471491    1.031204    0.628759
  H     -2.700467    1.513975    1.240208
  H     -3.606824    1.576556   -0.316000
  H     -4.419892    0.937929    1.179101
  C     -4.093537   -1.069425   -0.932883
  H     -3.796770   -2.046338   -1.337942
  H     -5.068961   -1.152599   -0.429186
  H     -4.123504   -0.329731   -1.745777
  C     -0.609178    0.103975    2.901511
  H     -0.060534    1.039756    3.130388
  H     -1.547958    0.094647    3.495802
  H      0.020434   -0.743420    3.237520
  H      2.283338   -3.631534   -1.572173
  H      3.135734   -3.322762    0.781228
  H      1.069667    3.809818   -2.099793
  H      2.115872    4.037362    0.182319

 Total Charge           Charge          ....   -1
 Multiplicity           Mult            ....    1
 Number of Electrons    NEL             ....  166
 Basis Dimension        Dim             ....  871

ORBITAL ENERGIES
----------------

  NO   OCC          E(Eh)            E(eV)
   0   2.0000     -88.718925     -2414.1647
   1   2.0000     -88.549914     -2409.5656
   2   2.0000     -88.548858     -2409.5369
   3   2.0000     -88.546181     -2409.4641
   4   2.0000     -88.545674     -2409.4503
   5   2.0000     -18.936371      -515.2848
   6   2.0000     -18.905528      -514.4456
   7   2.0000     -10.055947      -273.6362
   8   2.0000     -10.050230      -273.4807
   9   2.0000     -10.023891      -272.7639
  10   2.0000      -9.987883      -271.7841
  11   2.0000      -9.987549      -271.7750
  12   2.0000      -9.986823      -271.7553
  13   2.0000      -9.986540      -271.7476
  14   2.0000      -7.853108      -213.6939
  15   2.0000      -7.696546      -209.4337
  16   2.0000      -7.695447      -209.4038
  17   2.0000      -7.692943      -209.3356
  18   2.0000      -7.692394      -209.3207
  19   2.0000      -5.802694      -157.8993
  20   2.0000      -5.802114      -157.8835
  21   2.0000      -5.796102      -157.7200
  22   2.0000      -5.646134      -153.6391
  23   2.0000      -5.645116      -153.6114
  24   2.0000      -5.642608      -153.5432
  25   2.0000      -5.642077      -153.5287
  26   2.0000      -5.641961      -153.5256
  27   2.0000      -5.640641      -153.4896
  28   2.0000      -5.640470      -153.4850
  29   2.0000      -5.639519      -153.4591
  30   2.0000      -5.637930      -153.4159
  31   2.0000      -5.637313      -153.3991
  32   2.0000      -5.637180      -153.3955
  33   2.0000      -5.636685      -153.3820
  34   2.0000      -2.390155       -65.0394
  35   2.0000      -1.411064       -38.3970
  36   2.0000      -1.401830       -38.1457
  37   2.0000      -1.384547       -37.6754
  38   2.0000      -0.894736       -24.3470
  39   2.0000      -0.824266       -22.4294
  40   2.0000      -0.686767       -18.6879
  41   2.0000      -0.648296       -17.6410
  42   2.0000      -0.645778       -17.5725
  43   2.0000      -0.613631       -16.6977
  44   2.0000      -0.549753       -14.9595
  45   2.0000      -0.546963       -14.8836
  46   2.0000      -0.514268       -13.9939
  47   2.0000      -0.500893       -13.6300
  48   2.0000      -0.485546       -13.2124
  49   2.0000      -0.471486       -12.8298
  50   2.0000      -0.369901       -10.0655
  51   2.0000      -0.368461       -10.0263
  52   2.0000      -0.362979        -9.8772
  53   2.0000      -0.360353        -9.8057
  54   2.0000      -0.357715        -9.7339
  55   2.0000      -0.321609        -8.7514
  56   2.0000      -0.316745        -8.6191
  57   2.0000      -0.314171        -8.5490
  58   2.0000      -0.312245        -8.4966
  59   2.0000      -0.305944        -8.3252
  60   2.0000      -0.297245        -8.0884
  61   2.0000      -0.287772        -7.8307
  62   2.0000      -0.278035        -7.5657
  63   2.0000      -0.256368        -6.9761
  64   2.0000      -0.245076        -6.6688
  65   2.0000      -0.212619        -5.7856
  66   2.0000      -0.199607        -5.4316
  67   2.0000      -0.192757        -5.2452
  68   2.0000      -0.189468        -5.1557
  69   2.0000      -0.182773        -4.9735
  70   2.0000      -0.175240        -4.7685
  71   2.0000      -0.155849        -4.2409
  72   2.0000      -0.141088        -3.8392
  73   2.0000      -0.138141        -3.7590
  74   2.0000      -0.136445        -3.7128
  75   2.0000      -0.121048        -3.2939
  76   2.0000      -0.111078        -3.0226
  77   2.0000      -0.107362        -2.9215
  78   2.0000      -0.087310        -2.3758
  79   2.0000      -0.085590        -2.3290
  80   2.0000      -0.067786        -1.8445
  81   2.0000      -0.030688        -0.8351
  82   2.0000      -0.022043        -0.5998
  83   0.0000       0.063461         1.7269
  84   0.0000       0.069667         1.8957
  85   0.0000       0.075384         2.0513
  86   0.0000       0.086627         2.3572
  87   0.0000       0.094568         2.5733

MULLIKEN ATOMIC CHARGES
-----------------------
   0 O :   -0.171813
   1 Mo:   -0.341911
   2 O :   -0.370957
   3 S :   -0.419748
   4 C :    0.192554
   5 C :    0.186120
   6 S :   -0.388517
   7 S :   -0.396917
   8 C :    0.168342
   9 C :    0.187220
  10 S :   -0.394186
  11 S :    0.463330
  12 C :   -0.166773
  13 H :    0.055337
  14 H :    0.091827
  15 H :    0.126082
  16 C :   -0.233560
  17 H :    0.070550
  18 H :    0.113589
  19 H :    0.081571
  20 C :   -0.052504
  21 H :    0.053118
  22 H :    0.011439
  23 H :    0.028878
  24 H :    0.019410
  25 H :    0.034324
  26 H :    0.024202
  27 H :    0.028993
Sum of atomic charges:   -1.0000000

LOEWDIN ATOMIC CHARGES
----------------------
   0 O :   -0.522891
   1 Mo:    0.235053
   2 O :   -0.677215
   3 S :    0.553939
   4 C :   -0.593325
   5 C :   -0.608300
   6 S :    0.535512
   7 S :    0.545934
   8 C :   -0.598138
   9 C :   -0.608768
  10 S :    0.530986
  11 S :    0.954984
  12 C :    0.000875
  13 H :   -0.046952
  14 H :   -0.030518
  15 H :   -0.039116
  16 C :   -0.032420
  17 H :   -0.040636
  18 H :   -0.044278
  19 H :   -0.036905
  20 C :   -0.075703
  21 H :   -0.041447
  22 H :   -0.011842
  23 H :   -0.043212
  24 H :   -0.076030
  25 H :   -0.076219
  26 H :   -0.076898
  27 H :   -0.076469

  Mayer bond orders larger than 0.100000
B(  0-O ,  1-Mo) :   0.4702 B(  0-O ,  2-O ) :  -0.1657 B(  0-O ,  3-S ) :  -0.1439
B(  0-O ,  7-S ) :  -0.1646 B(  0-O , 11-S ) :   0.1017 B(  0-O , 20-C ) :   1.0940
B(  1-Mo,  2-O ) :   0.3571 B(  1-Mo,  3-S ) :   1.4335 B(  1-Mo,  6-S ) :   1.3904
B(  1-Mo,  7-S ) :   1.3477 B(  1-Mo, 10-S ) :   1.3454 B(  2-O ,  6-S ) :  -0.1696
B(  2-O , 11-S ) :   1.3273 B(  3-S ,  4-C ) :   0.8529 B(  4-C ,  5-C ) :   1.6763
B(  4-C , 25-H ) :   1.0668 B(  5-C ,  6-S ) :   0.8682 B(  5-C , 24-H ) :   1.0683
B(  7-S ,  8-C ) :   0.8873 B(  8-C ,  9-C ) :   1.6870 B(  8-C , 27-H ) :   1.0697
B(  9-C , 10-S ) :   0.8773 B(  9-C , 26-H ) :   1.0652 B( 11-S , 12-C ) :   0.8392
B( 11-S , 16-C ) :   0.9384 B( 12-C , 13-H ) :   1.0379 B( 12-C , 14-H ) :   0.9452
B( 12-C , 15-H ) :   0.9565 B( 12-C , 16-C ) :   0.1085 B( 16-C , 17-H ) :   0.9890
B( 16-C , 18-H ) :   0.9457 B( 16-C , 19-H ) :   0.9955 B( 20-C , 21-H ) :   0.9450
B( 20-C , 22-H ) :   0.9958 B( 20-C , 23-H ) :   0.9680

Dispersion correction           -0.062436492
FINAL SINGLE POINT ENERGY     -2484.786837925528

DIPOLE MOMENT
-------------
                                X             Y             Z
Electronic contribution:     33.73393      -1.18276      -4.15856
Nuclear contribution   :    -37.01048       1.06082       4.72052
                        -----------------------------------------
Total Dipole Moment    :     -3.27655      -0.12193       0.56196
                        -----------------------------------------
Magnitude (a.u.)       :      3.32662
Magnitude (Debye)      :      8.45560

Rotational constants in cm-1:     0.012467     0.009914     0.008398
Rotational constants in MHz :   373.762122   297.203486   251.777416

                             ****ORCA TERMINATED NORMALLY****
TOTAL RUN TIME: 0 days 0 hours 8 minutes 15 seconds 271 msec
