                         Program Version 4.2.0 -  RELEASE  -
|  1> #
|  2> # TMB01_R2 TPSSh-D3BJ/Def2-TZVPPD
|  3> #
|  4> ! tpssh d3bj def2-tzvppd def2/jk grid4 nofinalgrid
|  5>
|  6> *xyz 0 1
|  7> C        0.000000    0.000000    0.598253
|  8> C        0.000000    0.000000   -0.598253
|  9> H        0.000000    0.000000    1.662161
| 10> H        0.000000    0.000000   -1.662161
| 11> *
| 12>
| 13> %maxcore 5000
| 14>
| 15> %pal
| 16> nprocs = 24
| 17> end
| 18>
| 19>
| 20>                          ****END OF INPUT****

CARTESIAN COORDINATES (ANGSTROEM)
---------------------------------
  C      0.000000    0.000000    0.598253
  C      0.000000    0.000000   -0.598253
  H      0.000000    0.000000    1.662161
  H      0.000000    0.000000   -1.662161

 Total Charge           Charge          ....    0
 Multiplicity           Mult            ....    1
 Number of Electrons    NEL             ....   14
 Basis Dimension        Dim             ....  108

ORBITAL ENERGIES
----------------

  NO   OCC          E(Eh)            E(eV)
   0   2.0000     -10.120423      -275.3907
   1   2.0000     -10.117996      -275.3247
   2   2.0000      -0.736272       -20.0350
   3   2.0000      -0.555170       -15.1070
   4   2.0000      -0.481199       -13.0941
   5   2.0000      -0.283145        -7.7048
   6   2.0000      -0.283145        -7.7048
   7   0.0000       0.012091         0.3290
   8   0.0000       0.012091         0.3290
   9   0.0000       0.022354         0.6083
  10   0.0000       0.033254         0.9049
  11   0.0000       0.081717         2.2236

MULLIKEN ATOMIC CHARGES
-----------------------
   0 C :    0.022365
   1 C :    0.022092
   2 H :   -0.022201
   3 H :   -0.022256
Sum of atomic charges:    0.0000000

LOEWDIN ATOMIC CHARGES
----------------------
   0 C :    0.100066
   1 C :    0.100066
   2 H :   -0.100066
   3 H :   -0.100066

  Mayer bond orders larger than 0.100000
B(  0-C ,  1-C ) :   2.3561 B(  0-C ,  2-H ) :   1.2347 B(  0-C ,  3-H ) :  -0.1842
B(  1-C ,  2-H ) :  -0.1841 B(  1-C ,  3-H ) :   1.2348

Dispersion correction           -0.001444827
FINAL SINGLE POINT ENERGY       -77.366032625689

DIPOLE MOMENT
-------------
                                X             Y             Z
Electronic contribution:     -0.00000      -0.00000      -0.00000
Nuclear contribution   :      0.00000       0.00000       0.00000
                        -----------------------------------------
Total Dipole Moment    :     -0.00000      -0.00000      -0.00000
                        -----------------------------------------
Magnitude (a.u.)       :      0.00000
Magnitude (Debye)      :      0.00000

Rotational constants in cm-1:     0.000000     1.189890     1.189890
Rotational constants in MHz :     0.000000 35672.008035 35672.008035

                             ****ORCA TERMINATED NORMALLY****
TOTAL RUN TIME: 0 days 0 hours 0 minutes 3 seconds 96 msec
