                         Program Version 4.2.0 -  RELEASE  -
|  1> #
|  2> # TMB10_C1 TPSSh-D3BJ/Def2-TZVPPD
|  3> #
|  4> ! tpssh d3bj def2-tzvppd def2/jk grid4 nofinalgrid
|  5>
|  6> *xyz 0 1
|  7> Mo       0.133298    0.019814    0.066207
|  8> C       -1.075332   -1.355629   -0.909336
|  9> C       -2.072844    2.216315    0.675821
| 10> H       -2.495915    2.026095    1.680930
| 11> H       -2.910608    2.260759   -0.044542
| 12> H       -1.592380    3.211696    0.695601
| 13> C        3.010907   -1.316541   -0.054396
| 14> C        1.366704    2.705574   -0.540684
| 15> N       -1.143030    1.200231    0.316847
| 16> O        1.491405    1.304940   -0.439122
| 17> O        1.615447   -1.247555   -0.063202
| 18> H        3.367194   -2.025819   -0.825669
| 19> H        3.385726   -1.672276    0.926079
| 20> H        3.451946   -0.322838   -0.260301
| 21> H        2.294131    3.111318   -0.982908
| 22> H        1.229038    3.178184    0.450904
| 23> H        0.520365    2.998986   -1.190253
| 24> C       -0.462062   -1.067727    1.747714
| 25> C       -1.245054   -1.851214    0.615257
| 26> H        0.321659   -1.674412    2.211474
| 27> H       -1.131198   -0.604236    2.478956
| 28> H       -0.901967   -2.892720    0.638908
| 29> H       -2.316994   -1.775934    0.836451
| 30> C       -2.372818   -1.072037   -1.638655
| 31> H       -2.166926   -0.639290   -2.630957
| 32> H       -2.958163   -1.996472   -1.801781
| 33> H       -3.005382   -0.361002   -1.085358
| 34> H       -0.439666   -2.067375   -1.451890
| 35> *
| 36>
| 37> %maxcore 5000
| 38>
| 39> %pal
| 40> nprocs = 24
| 41> end
| 42>
| 43>
| 44>                          ****END OF INPUT****

CARTESIAN COORDINATES (ANGSTROEM)
---------------------------------
  Mo     0.133298    0.019814    0.066207
  C     -1.075332   -1.355629   -0.909336
  C     -2.072844    2.216315    0.675821
  H     -2.495915    2.026095    1.680930
  H     -2.910608    2.260759   -0.044542
  H     -1.592380    3.211696    0.695601
  C      3.010907   -1.316541   -0.054396
  C      1.366704    2.705574   -0.540684
  N     -1.143030    1.200231    0.316847
  O      1.491405    1.304940   -0.439122
  O      1.615447   -1.247555   -0.063202
  H      3.367194   -2.025819   -0.825669
  H      3.385726   -1.672276    0.926079
  H      3.451946   -0.322838   -0.260301
  H      2.294131    3.111318   -0.982908
  H      1.229038    3.178184    0.450904
  H      0.520365    2.998986   -1.190253
  C     -0.462062   -1.067727    1.747714
  C     -1.245054   -1.851214    0.615257
  H      0.321659   -1.674412    2.211474
  H     -1.131198   -0.604236    2.478956
  H     -0.901967   -2.892720    0.638908
  H     -2.316994   -1.775934    0.836451
  C     -2.372818   -1.072037   -1.638655
  H     -2.166926   -0.639290   -2.630957
  H     -2.958163   -1.996472   -1.801781
  H     -3.005382   -0.361002   -1.085358
  H     -0.439666   -2.067375   -1.451890

 Total Charge           Charge          ....    0
 Multiplicity           Mult            ....    1
 Number of Electrons    NEL             ....   96
 Basis Dimension        Dim             ....  721

ORBITAL ENERGIES
----------------

  NO   OCC          E(Eh)            E(eV)
   0   2.0000     -19.027782      -517.7723
   1   2.0000     -19.014558      -517.4124
   2   2.0000     -14.245283      -387.6339
   3   2.0000     -10.149904      -276.1929
   4   2.0000     -10.145039      -276.0606
   5   2.0000     -10.143262      -276.0122
   6   2.0000     -10.135135      -275.7911
   7   2.0000     -10.124631      -275.5052
   8   2.0000     -10.114700      -275.2350
   9   2.0000     -10.111138      -275.1380
  10   2.0000      -2.563121       -69.7461
  11   2.0000      -1.580702       -43.0131
  12   2.0000      -1.577516       -42.9264
  13   2.0000      -1.563712       -42.5508
  14   2.0000      -0.941327       -25.6148
  15   2.0000      -0.931911       -25.3586
  16   2.0000      -0.821076       -22.3426
  17   2.0000      -0.771855       -21.0032
  18   2.0000      -0.706084       -19.2135
  19   2.0000      -0.633493       -17.2382
  20   2.0000      -0.628905       -17.1134
  21   2.0000      -0.612923       -16.6785
  22   2.0000      -0.605109       -16.4659
  23   2.0000      -0.541294       -14.7294
  24   2.0000      -0.464331       -12.6351
  25   2.0000      -0.443781       -12.0759
  26   2.0000      -0.439065       -11.9476
  27   2.0000      -0.428263       -11.6536
  28   2.0000      -0.424239       -11.5441
  29   2.0000      -0.416022       -11.3205
  30   2.0000      -0.412809       -11.2331
  31   2.0000      -0.406413       -11.0591
  32   2.0000      -0.403532       -10.9807
  33   2.0000      -0.396748       -10.7961
  34   2.0000      -0.392285       -10.6746
  35   2.0000      -0.380460       -10.3528
  36   2.0000      -0.368023       -10.0144
  37   2.0000      -0.366903        -9.9839
  38   2.0000      -0.333531        -9.0758
  39   2.0000      -0.326664        -8.8890
  40   2.0000      -0.296033        -8.0555
  41   2.0000      -0.281604        -7.6628
  42   2.0000      -0.274401        -7.4668
  43   2.0000      -0.247675        -6.7396
  44   2.0000      -0.246403        -6.7050
  45   2.0000      -0.238042        -6.4774
  46   2.0000      -0.228876        -6.2280
  47   2.0000      -0.218674        -5.9504
  48   0.0000      -0.061975        -1.6864
  49   0.0000      -0.049070        -1.3353
  50   0.0000      -0.045153        -1.2287
  51   0.0000      -0.009413        -0.2561
  52   0.0000      -0.005079        -0.1382

MULLIKEN ATOMIC CHARGES
-----------------------
   0 Mo:    0.658669
   1 C :    0.709578
   2 C :   -0.098412
   3 H :    0.076663
   4 H :    0.057853
   5 H :    0.102630
   6 C :   -0.070329
   7 C :   -0.010611
   8 N :   -0.768158
   9 O :   -0.676162
  10 O :   -0.548563
  11 H :    0.037624
  12 H :    0.050568
  13 H :    0.091693
  14 H :    0.016581
  15 H :    0.056452
  16 H :    0.066708
  17 C :    0.237574
  18 C :    0.264388
  19 H :    0.020245
  20 H :   -0.020197
  21 H :    0.003430
  22 H :   -0.020992
  23 C :   -0.529932
  24 H :    0.022043
  25 H :    0.081503
  26 H :    0.028622
  27 H :    0.160532
Sum of atomic charges:   -0.0000000

LOEWDIN ATOMIC CHARGES
----------------------
   0 Mo:    1.164416
   1 C :   -0.209417
   2 C :    0.029237
   3 H :   -0.007798
   4 H :   -0.011139
   5 H :   -0.013268
   6 C :    0.004938
   7 C :   -0.013919
   8 N :   -0.098377
   9 O :   -0.311034
  10 O :   -0.309061
  11 H :   -0.006886
  12 H :   -0.006087
  13 H :   -0.016294
  14 H :   -0.006585
  15 H :   -0.011995
  16 H :   -0.015622
  17 C :   -0.008909
  18 C :   -0.063408
  19 H :   -0.053344
  20 H :   -0.056581
  21 H :    0.010079
  22 H :    0.006278
  23 C :    0.085002
  24 H :   -0.015484
  25 H :   -0.011858
  26 H :   -0.027192
  27 H :   -0.025692

  Mayer bond orders larger than 0.100000
B(  0-Mo,  1-C ) :   0.9770 B(  0-Mo,  2-C ) :   0.1592 B(  0-Mo,  8-N ) :   1.2040
B(  0-Mo,  9-O ) :   0.8030 B(  0-Mo, 10-O ) :   0.8856 B(  0-Mo, 17-C ) :   1.0385
B(  0-Mo, 18-C ) :   0.2902 B(  0-Mo, 19-H ) :   0.1046 B(  0-Mo, 23-C ) :   0.1247
B(  1-C ,  8-N ) :  -0.1009 B(  1-C , 10-O ) :  -0.1897 B(  1-C , 18-C ) :   0.7563
B(  1-C , 23-C ) :   0.9290 B(  1-C , 27-H ) :   0.9310 B(  2-C ,  3-H ) :   0.9828
B(  2-C ,  4-H ) :   0.9799 B(  2-C ,  5-H ) :   0.9846 B(  2-C ,  8-N ) :   0.6677
B(  6-C , 10-O ) :   0.9833 B(  6-C , 11-H ) :   0.9954 B(  6-C , 12-H ) :   0.9899
B(  6-C , 13-H ) :   0.9954 B(  7-C ,  9-O ) :   0.9114 B(  7-C , 14-H ) :   1.0294
B(  7-C , 15-H ) :   0.9889 B(  7-C , 16-H ) :   0.9740 B( 10-O , 17-C ) :  -0.2143
B( 17-C , 18-C ) :   0.8914 B( 17-C , 19-H ) :   1.0173 B( 17-C , 20-H ) :   1.0343
B( 18-C , 21-H ) :   0.9700 B( 18-C , 22-H ) :   1.0282 B( 23-C , 24-H ) :   0.9874
B( 23-C , 25-H ) :   1.0008 B( 23-C , 26-H ) :   1.0054

Dispersion correction           -0.037527199
FINAL SINGLE POINT ENERGY      -550.685909983926

DIPOLE MOMENT
-------------
                                X             Y             Z
Electronic contribution:     11.19140       0.86416       4.60461
Nuclear contribution   :    -12.16779      -0.65832      -4.35638
                        -----------------------------------------
Total Dipole Moment    :     -0.97639       0.20584       0.24823
                        -----------------------------------------
Magnitude (a.u.)       :      1.02827
Magnitude (Debye)      :      2.61365

Rotational constants in cm-1:     0.031161     0.027931     0.019091
Rotational constants in MHz :   934.171856   837.337056   572.342467

                             ****ORCA TERMINATED NORMALLY****
TOTAL RUN TIME: 0 days 0 hours 4 minutes 36 seconds 806 msec
