                         Program Version 4.2.0 -  RELEASE  -
|  1> #
|  2> # TMB29_C2 TPSSh-D3BJ/Def2-TZVPPD
|  3> #
|  4> ! tpssh d3bj def2-tzvppd def2/jk grid4 nofinalgrid
|  5>
|  6> *xyz 1 1
|  7> C        0.315194   -1.265840   -0.205097
|  8> C        1.442343   -0.626838    0.044790
|  9> C        0.309905   -2.700146   -0.639207
| 10> H        1.304587   -3.137496   -0.733589
| 11> H       -0.263876   -3.299051    0.071387
| 12> H       -0.202915   -2.796953   -1.598442
| 13> C        1.798588    0.767906    0.516696
| 14> O        3.282693    0.709723    0.495405
| 15> C        3.659486   -0.471899    0.173285
| 16> O        2.736849   -1.295199   -0.102354
| 17> C        1.344136    1.838147   -0.506262
| 18> O        0.287215    2.374668   -0.320274
| 19> C        2.219880    2.103298   -1.689301
| 20> H        2.470349    1.173144   -2.206730
| 21> H        1.702341    2.771806   -2.372494
| 22> H        3.157528    2.564787   -1.369834
| 23> C        5.078697   -0.839761    0.144564
| 24> H        5.213504   -1.795905   -0.353509
| 25> H        5.652959   -0.054437   -0.347617
| 26> H        5.438400   -0.910855    1.175413
| 27> C        1.364152    1.101522    1.920814
| 28> H        1.754676    2.072052    2.227431
| 29> H        0.275994    1.149047    1.931402
| 30> H        1.690154    0.330993    2.618895
| 31> Au      -1.496985   -0.316099   -0.013075
| 32> P       -3.546234    0.682452    0.150815
| 33> H       -3.831804    1.712524   -0.762172
| 34> H       -4.687337   -0.122280   -0.012331
| 35> H       -3.867595    1.325764    1.359005
| 36> *
| 37>
| 38> %maxcore 5000
| 39>
| 40> %pal
| 41> nprocs = 24
| 42> end
| 43>
| 44>
| 45>                          ****END OF INPUT****

CARTESIAN COORDINATES (ANGSTROEM)
---------------------------------
  C      0.315194   -1.265840   -0.205097
  C      1.442343   -0.626838    0.044790
  C      0.309905   -2.700146   -0.639207
  H      1.304587   -3.137496   -0.733589
  H     -0.263876   -3.299051    0.071387
  H     -0.202915   -2.796953   -1.598442
  C      1.798588    0.767906    0.516696
  O      3.282693    0.709723    0.495405
  C      3.659486   -0.471899    0.173285
  O      2.736849   -1.295199   -0.102354
  C      1.344136    1.838147   -0.506262
  O      0.287215    2.374668   -0.320274
  C      2.219880    2.103298   -1.689301
  H      2.470349    1.173144   -2.206730
  H      1.702341    2.771806   -2.372494
  H      3.157528    2.564787   -1.369834
  C      5.078697   -0.839761    0.144564
  H      5.213504   -1.795905   -0.353509
  H      5.652959   -0.054437   -0.347617
  H      5.438400   -0.910855    1.175413
  C      1.364152    1.101522    1.920814
  H      1.754676    2.072052    2.227431
  H      0.275994    1.149047    1.931402
  H      1.690154    0.330993    2.618895
  Au    -1.496985   -0.316099   -0.013075
  P     -3.546234    0.682452    0.150815
  H     -3.831804    1.712524   -0.762172
  H     -4.687337   -0.122280   -0.012331
  H     -3.867595    1.325764    1.359005

 Total Charge           Charge          ....    1
 Multiplicity           Mult            ....    1
 Number of Electrons    NEL             ....  126
 Basis Dimension        Dim             ....  815

ORBITAL ENERGIES
----------------

  NO   OCC          E(Eh)            E(eV)
   0   2.0000     -77.083354     -2097.5447
   1   2.0000     -19.303780      -525.2826
   2   2.0000     -19.297432      -525.1098
   3   2.0000     -19.181993      -521.9686
   4   2.0000     -10.444768      -284.2166
   5   2.0000     -10.350159      -281.6422
   6   2.0000     -10.337950      -281.3099
   7   2.0000     -10.312215      -280.6096
   8   2.0000     -10.290765      -280.0259
   9   2.0000     -10.249398      -278.9003
  10   2.0000     -10.244145      -278.7574
  11   2.0000     -10.243982      -278.7529
  12   2.0000     -10.223380      -278.1923
  13   2.0000      -6.640543      -180.6984
  14   2.0000      -4.789510      -130.3292
  15   2.0000      -4.789477      -130.3283
  16   2.0000      -4.786523      -130.2479
  17   2.0000      -4.230203      -115.1097
  18   2.0000      -2.430788       -66.1451
  19   2.0000      -2.412534       -65.6484
  20   2.0000      -2.411543       -65.6214
  21   2.0000      -1.329773       -36.1850
  22   2.0000      -1.221204       -33.2307
  23   2.0000      -1.165436       -31.7131
  24   2.0000      -0.977514       -26.5995
  25   2.0000      -0.902150       -24.5487
  26   2.0000      -0.892727       -24.2923
  27   2.0000      -0.861527       -23.4434
  28   2.0000      -0.810951       -22.0671
  29   2.0000      -0.782159       -21.2836
  30   2.0000      -0.781171       -21.2567
  31   2.0000      -0.763545       -20.7771
  32   2.0000      -0.719328       -19.5739
  33   2.0000      -0.703852       -19.1528
  34   2.0000      -0.663329       -18.0501
  35   2.0000      -0.629332       -17.1250
  36   2.0000      -0.600526       -16.3412
  37   2.0000      -0.581002       -15.8099
  38   2.0000      -0.576854       -15.6970
  39   2.0000      -0.568243       -15.4627
  40   2.0000      -0.561097       -15.2682
  41   2.0000      -0.558653       -15.2017
  42   2.0000      -0.552500       -15.0343
  43   2.0000      -0.546946       -14.8832
  44   2.0000      -0.533006       -14.5038
  45   2.0000      -0.530576       -14.4377
  46   2.0000      -0.530285       -14.4298
  47   2.0000      -0.524783       -14.2801
  48   2.0000      -0.522298       -14.2125
  49   2.0000      -0.513192       -13.9647
  50   2.0000      -0.504313       -13.7231
  51   2.0000      -0.500529       -13.6201
  52   2.0000      -0.493488       -13.4285
  53   2.0000      -0.480375       -13.0717
  54   2.0000      -0.474981       -12.9249
  55   2.0000      -0.434842       -11.8327
  56   2.0000      -0.419968       -11.4279
  57   2.0000      -0.407181       -11.0800
  58   2.0000      -0.406146       -11.0518
  59   2.0000      -0.403529       -10.9806
  60   2.0000      -0.387966       -10.5571
  61   2.0000      -0.363033        -9.8786
  62   2.0000      -0.354158        -9.6371
  63   0.0000      -0.219026        -5.9600
  64   0.0000      -0.180436        -4.9099
  65   0.0000      -0.151528        -4.1233
  66   0.0000      -0.140197        -3.8150
  67   0.0000      -0.126401        -3.4396

MULLIKEN ATOMIC CHARGES
-----------------------
   0 C :    0.287448
   1 C :   -0.661522
   2 C :   -0.346301
   3 H :    0.033519
   4 H :    0.107030
   5 H :    0.100029
   6 C :    2.415637
   7 O :   -0.328520
   8 C :    0.695026
   9 O :   -0.364826
  10 C :    0.382185
  11 O :   -0.548855
  12 C :   -0.286427
  13 H :    0.091859
  14 H :    0.005262
  15 H :    0.098927
  16 C :   -0.327457
  17 H :    0.071056
  18 H :    0.063916
  19 H :    0.056008
  20 C :   -0.399604
  21 H :    0.019914
  22 H :    0.009156
  23 H :    0.077182
  24 Au:   -0.555912
  25 P :    0.035282
  26 H :    0.094716
  27 H :    0.087037
  28 H :    0.088233
Sum of atomic charges:    1.0000000

LOEWDIN ATOMIC CHARGES
----------------------
   0 C :   -0.267366
   1 C :   -0.179365
   2 C :    0.101062
   3 H :   -0.017649
   4 H :   -0.011986
   5 H :   -0.013222
   6 C :   -0.266864
   7 O :    0.170002
   8 C :   -0.310082
   9 O :    0.193891
  10 C :   -0.324277
  11 O :    0.104901
  12 C :    0.244379
  13 H :    0.008970
  14 H :    0.010677
  15 H :    0.011172
  16 C :    0.307102
  17 H :    0.023330
  18 H :    0.027536
  19 H :    0.034155
  20 C :    0.235769
  21 H :    0.019540
  22 H :   -0.012336
  23 H :    0.017060
  24 Au:    0.578478
  25 P :    0.824340
  26 H :   -0.167438
  27 H :   -0.171795
  28 H :   -0.169984

  Mayer bond orders larger than 0.100000
B(  0-C ,  1-C ) :   0.8597 B(  0-C ,  2-C ) :   1.0429 B(  0-C ,  9-O ) :   0.2037
B(  0-C , 24-Au) :   0.9767 B(  1-C ,  6-C ) :  -0.1361 B(  1-C ,  9-O ) :   0.5112
B(  1-C , 10-C ) :   0.4748 B(  1-C , 12-C ) :   0.1361 B(  1-C , 20-C ) :   0.2959
B(  1-C , 22-H ) :   0.1174 B(  1-C , 24-Au) :  -0.4854 B(  2-C ,  3-H ) :   1.0093
B(  2-C ,  4-H ) :   0.9308 B(  2-C ,  5-H ) :   0.9351 B(  2-C , 24-Au) :   0.1376
B(  6-C ,  7-O ) :   0.3990 B(  6-C ,  8-C ) :  -0.1173 B(  6-C , 10-C ) :   0.1547
B(  6-C , 11-O ) :   0.1385 B(  6-C , 20-C ) :   0.7853 B(  7-O ,  8-C ) :   1.2192
B(  7-O ,  9-O ) :   0.1335 B(  8-C ,  9-O ) :   1.1033 B(  8-C , 16-C ) :   1.2442
B(  9-O , 16-C ) :  -0.1196 B( 10-C , 11-O ) :   1.2456 B( 10-C , 12-C ) :   1.2410
B( 11-O , 12-C ) :   0.1227 B( 12-C , 13-H ) :   0.9173 B( 12-C , 14-H ) :   1.0639
B( 12-C , 15-H ) :   0.9041 B( 16-C , 17-H ) :   0.9760 B( 16-C , 18-H ) :   0.9578
B( 16-C , 19-H ) :   0.9213 B( 20-C , 21-H ) :   0.9654 B( 20-C , 22-H ) :   0.8813
B( 20-C , 23-H ) :   0.9719 B( 24-Au, 25-P ) :   0.9637 B( 25-P , 26-H ) :   0.9383
B( 25-P , 27-H ) :   0.9384 B( 25-P , 28-H ) :   0.9391

Dispersion correction           -0.041878229
FINAL SINGLE POINT ENERGY     -1054.820734373830

DIPOLE MOMENT
-------------
                                X             Y             Z
Electronic contribution:   -213.35142     -43.40226      -1.31804
Nuclear contribution   :    216.19870      43.43467       1.47956
                        -----------------------------------------
Total Dipole Moment    :      2.84728       0.03241       0.16152
                        -----------------------------------------
Magnitude (a.u.)       :      2.85204
Magnitude (Debye)      :      7.24931

Rotational constants in cm-1:     0.028648     0.008219     0.007101
Rotational constants in MHz :   858.848987   246.390678   212.872024

                             ****ORCA TERMINATED NORMALLY****
TOTAL RUN TIME: 0 days 0 hours 5 minutes 40 seconds 458 msec
