                         Program Version 4.2.0 -  RELEASE  -
|  1> #
|  2> # TMB20_T3 TPSSh-D3BJ/Def2-TZVPPD
|  3> #
|  4> ! tpssh d3bj def2-tzvppd def2/jk grid4 nofinalgrid
|  5>
|  6> *xyz 0 1
|  7> Re      -0.699337    0.269974   -0.016922
|  8> C       -1.517494    1.171658    1.511937
|  9> C       -2.128741    0.734814   -1.269556
| 10> C        0.006415    1.979914   -0.520985
| 11> Br      -2.293994   -1.692635    0.422377
| 12> O        0.401983    3.017146   -0.812479
| 13> O       -1.978437    1.683611    2.420736
| 14> O       -2.925520    0.985618   -2.040062
| 15> C        1.682445   -0.880018   -1.649716
| 16> C        0.364751   -1.082540   -1.469297
| 17> C        2.354559    0.058914   -0.699791
| 18> C        3.755152   -0.401179   -0.311110
| 19> O        4.391770   -1.216840   -0.916463
| 20> O        4.190730    0.250058    0.766853
| 21> C        1.438220    0.283372    0.494253
| 22> O        0.848413   -0.807036    1.012308
| 23> H        0.600901   -1.340620   -0.125835
| 24> C        5.512413   -0.088930    1.195157
| 25> H        5.700542    0.516294    2.077458
| 26> H        5.571154   -1.149548    1.436871
| 27> H        6.234349    0.138790    0.411497
| 28> H       -0.156995   -1.792005   -2.102193
| 29> H        2.493970    1.031893   -1.188973
| 30> H        1.754916    1.016172    1.230092
| 31> H        2.303398   -1.383326   -2.385460
| 32> *
| 33>
| 34> %maxcore 5000
| 35>
| 36> %pal
| 37> nprocs = 24
| 38> end
| 39>
| 40>
| 41>                          ****END OF INPUT****

CARTESIAN COORDINATES (ANGSTROEM)
---------------------------------
  Re    -0.699337    0.269974   -0.016922
  C     -1.517494    1.171658    1.511937
  C     -2.128741    0.734814   -1.269556
  C      0.006415    1.979914   -0.520985
  Br    -2.293994   -1.692635    0.422377
  O      0.401983    3.017146   -0.812479
  O     -1.978437    1.683611    2.420736
  O     -2.925520    0.985618   -2.040062
  C      1.682445   -0.880018   -1.649716
  C      0.364751   -1.082540   -1.469297
  C      2.354559    0.058914   -0.699791
  C      3.755152   -0.401179   -0.311110
  O      4.391770   -1.216840   -0.916463
  O      4.190730    0.250058    0.766853
  C      1.438220    0.283372    0.494253
  O      0.848413   -0.807036    1.012308
  H      0.600901   -1.340620   -0.125835
  C      5.512413   -0.088930    1.195157
  H      5.700542    0.516294    2.077458
  H      5.571154   -1.149548    1.436871
  H      6.234349    0.138790    0.411497
  H     -0.156995   -1.792005   -2.102193
  H      2.493970    1.031893   -1.188973
  H      1.754916    1.016172    1.230092
  H      2.303398   -1.383326   -2.385460

 Total Charge           Charge          ....    0
 Multiplicity           Mult            ....    1
 Number of Electrons    NEL             ....  160
 Basis Dimension        Dim             ....  825

ORBITAL ENERGIES
----------------

  NO   OCC          E(Eh)            E(eV)
   0   2.0000    -482.519543    -13130.0243
   1   2.0000     -62.233239     -1693.4525
   2   2.0000     -56.018373     -1524.3374
   3   2.0000     -56.016405     -1524.2839
   4   2.0000     -56.016050     -1524.2742
   5   2.0000     -19.151412      -521.1364
   6   2.0000     -19.139298      -520.8068
   7   2.0000     -19.135997      -520.7170
   8   2.0000     -19.132193      -520.6135
   9   2.0000     -19.126004      -520.4450
  10   2.0000     -19.071655      -518.9661
  11   2.0000     -10.268555      -279.4216
  12   2.0000     -10.250011      -278.9170
  13   2.0000     -10.246673      -278.8262
  14   2.0000     -10.235037      -278.5095
  15   2.0000     -10.232059      -278.4285
  16   2.0000     -10.191157      -277.3155
  17   2.0000     -10.179906      -277.0093
  18   2.0000     -10.166987      -276.6578
  19   2.0000     -10.129430      -275.6358
  20   2.0000      -8.578940      -233.4448
  21   2.0000      -6.397358      -174.0810
  22   2.0000      -6.391342      -173.9173
  23   2.0000      -6.390241      -173.8873
  24   2.0000      -3.202388       -87.1414
  25   2.0000      -2.521353       -68.6095
  26   2.0000      -2.520007       -68.5729
  27   2.0000      -2.519094       -68.5480
  28   2.0000      -2.514435       -68.4213
  29   2.0000      -2.514429       -68.4211
  30   2.0000      -1.779435       -48.4209
  31   2.0000      -1.772648       -48.2362
  32   2.0000      -1.761634       -47.9365
  33   2.0000      -1.135881       -30.9089
  34   2.0000      -1.123314       -30.5669
  35   2.0000      -1.121619       -30.5208
  36   2.0000      -1.119535       -30.4641
  37   2.0000      -1.075813       -29.2744
  38   2.0000      -1.032296       -28.0902
  39   2.0000      -0.843722       -22.9588
  40   2.0000      -0.766665       -20.8620
  41   2.0000      -0.722521       -19.6608
  42   2.0000      -0.708008       -19.2659
  43   2.0000      -0.650538       -17.7020
  44   2.0000      -0.598332       -16.2814
  45   2.0000      -0.590457       -16.0671
  46   2.0000      -0.579906       -15.7800
  47   2.0000      -0.568838       -15.4789
  48   2.0000      -0.560703       -15.2575
  49   2.0000      -0.543318       -14.7844
  50   2.0000      -0.526567       -14.3286
  51   2.0000      -0.500612       -13.6223
  52   2.0000      -0.493915       -13.4401
  53   2.0000      -0.487752       -13.2724
  54   2.0000      -0.480997       -13.0886
  55   2.0000      -0.477559       -12.9950
  56   2.0000      -0.469334       -12.7712
  57   2.0000      -0.465801       -12.6751
  58   2.0000      -0.461206       -12.5500
  59   2.0000      -0.458897       -12.4872
  60   2.0000      -0.454383       -12.3644
  61   2.0000      -0.449113       -12.2210
  62   2.0000      -0.446480       -12.1493
  63   2.0000      -0.441216       -12.0061
  64   2.0000      -0.437028       -11.8921
  65   2.0000      -0.426707       -11.6113
  66   2.0000      -0.410482       -11.1698
  67   2.0000      -0.395151       -10.7526
  68   2.0000      -0.377723       -10.2784
  69   2.0000      -0.373564       -10.1652
  70   2.0000      -0.326229        -8.8771
  71   2.0000      -0.324908        -8.8412
  72   2.0000      -0.313407        -8.5282
  73   2.0000      -0.299541        -8.1509
  74   2.0000      -0.293572        -7.9885
  75   2.0000      -0.286609        -7.7990
  76   2.0000      -0.271072        -7.3762
  77   2.0000      -0.260585        -7.0909
  78   2.0000      -0.247589        -6.7372
  79   2.0000      -0.230345        -6.2680
  80   0.0000      -0.108789        -2.9603
  81   0.0000      -0.088717        -2.4141
  82   0.0000      -0.052081        -1.4172
  83   0.0000      -0.046765        -1.2725
  84   0.0000      -0.037185        -1.0119

MULLIKEN ATOMIC CHARGES
-----------------------
   0 Re:   -0.318741
   1 C :    0.788139
   2 C :    0.666967
   3 C :    0.182211
   4 Br:   -0.570973
   5 O :   -0.393071
   6 O :   -0.324267
   7 O :   -0.295547
   8 C :   -0.632820
   9 C :    0.147437
  10 C :    1.705587
  11 C :    0.116727
  12 O :   -0.631516
  13 O :   -0.345255
  14 C :    0.015316
  15 O :   -0.550305
  16 H :    0.257138
  17 C :    0.009690
  18 H :    0.060954
  19 H :    0.089661
  20 H :    0.086674
  21 H :   -0.078715
  22 H :   -0.030121
  23 H :    0.044122
  24 H :    0.000705
Sum of atomic charges:   -0.0000000

LOEWDIN ATOMIC CHARGES
----------------------
   0 Re:    0.624648
   1 C :   -0.271376
   2 C :   -0.304958
   3 C :   -0.277797
   4 Br:    0.174221
   5 O :    0.148550
   6 O :    0.139186
   7 O :    0.160086
   8 C :    0.053104
   9 C :    0.008769
  10 C :   -0.093334
  11 C :   -0.446548
  12 O :    0.147355
  13 O :    0.030592
  14 C :   -0.193053
  15 O :   -0.021173
  16 H :   -0.164172
  17 C :    0.178896
  18 H :    0.009545
  19 H :    0.013472
  20 H :    0.012178
  21 H :   -0.041292
  22 H :    0.057998
  23 H :    0.035000
  24 H :    0.020099

  Mayer bond orders larger than 0.100000
B(  0-Re,  1-C ) :   1.3048 B(  0-Re,  2-C ) :   1.2509 B(  0-Re,  3-C ) :   1.5235
B(  0-Re,  4-Br) :   0.3418 B(  0-Re,  5-O ) :   0.1088 B(  0-Re,  6-O ) :   0.1530
B(  0-Re,  7-O ) :   0.1060 B(  0-Re,  8-C ) :   0.2499 B(  0-Re,  9-C ) :   0.3674
B(  0-Re, 14-C ) :   0.5598 B(  0-Re, 15-O ) :   0.5989 B(  0-Re, 16-H ) :   0.1189
B(  1-C ,  2-C ) :  -0.1020 B(  1-C ,  3-C ) :  -0.1403 B(  1-C ,  6-O ) :   1.9964
B(  2-C ,  7-O ) :   2.0245 B(  3-C ,  5-O ) :   1.8421 B(  3-C ,  8-C ) :  -0.1287
B(  3-C , 14-C ) :   0.2177 B(  8-C ,  9-C ) :   1.9451 B(  8-C , 10-C ) :   0.4309
B(  8-C , 11-C ) :   0.2070 B(  8-C , 14-C ) :   0.1598 B(  8-C , 16-H ) :   0.1568
B(  8-C , 24-H ) :   1.1478 B(  9-C , 10-C ) :  -0.1478 B(  9-C , 16-H ) :   0.4025
B(  9-C , 21-H ) :   1.0726 B( 10-C , 11-C ) :   0.4809 B( 10-C , 14-C ) :   0.9188
B( 10-C , 15-O ) :   0.1068 B( 10-C , 22-H ) :   0.7140 B( 11-C , 12-O ) :   1.4023
B( 11-C , 13-O ) :   0.7822 B( 11-C , 14-C ) :   0.3229 B( 12-O , 13-O ) :   0.1199
B( 13-O , 17-C ) :   0.8593 B( 14-C , 15-O ) :   0.6126 B( 14-C , 23-H ) :   0.9340
B( 15-O , 16-H ) :   0.3419 B( 15-O , 23-H ) :  -0.1109 B( 17-C , 18-H ) :   1.0371
B( 17-C , 19-H ) :   0.9690 B( 17-C , 20-H ) :   0.9568

Dispersion correction           -0.044486555
FINAL SINGLE POINT ENERGY     -3451.965053417410

DIPOLE MOMENT
-------------
                                X             Y             Z
Electronic contribution:   -122.80833      28.92940       0.58700
Nuclear contribution   :    124.94821     -28.06424      -0.72382
                        -----------------------------------------
Total Dipole Moment    :      2.13988       0.86515      -0.13681
                        -----------------------------------------
Magnitude (a.u.)       :      2.31221
Magnitude (Debye)      :      5.87716

Rotational constants in cm-1:     0.017375     0.006623     0.006112
Rotational constants in MHz :   520.879987   198.539547   183.234187

                             ****ORCA TERMINATED NORMALLY****
TOTAL RUN TIME: 0 days 0 hours 6 minutes 29 seconds 502 msec
