                         Program Version 4.2.0 -  RELEASE  -
|  1> #
|  2> # TMB26_T1 TPSSh-D3BJ/Def2-TZVPPD
|  3> #
|  4> ! tpssh d3bj def2-tzvppd def2/jk grid4 nofinalgrid
|  5>
|  6> *xyz 0 1
|  7> C       -2.466566    1.069840    0.238308
|  8> C       -2.451721    0.070166    1.223311
|  9> C       -3.390268   -0.966147    1.168446
| 10> C       -4.328348   -1.022612    0.143865
| 11> C       -4.333048   -0.013813   -0.819144
| 12> C       -3.403006    1.027077   -0.774806
| 13> H       -1.851874    0.172622    2.118430
| 14> H       -5.044959   -1.827220    0.098719
| 15> H       -3.408268    1.764270   -1.566273
| 16> C       -1.433505    2.123552    0.250561
| 17> C       -1.778108    3.466931    0.185146
| 18> C       -0.064979    1.782593    0.286078
| 19> C       -0.802488    4.453319    0.169404
| 20> H       -2.826505    3.739000    0.161874
| 21> C        0.907771    2.775168    0.263672
| 22> C        0.538977    4.108677    0.211691
| 23> H       -1.095064    5.495288    0.125305
| 24> H        1.951961    2.493561    0.298441
| 25> H        1.301937    4.876538    0.199556
| 26> C        0.257789    0.377788    0.312230
| 27> C       -0.304042   -0.722217    0.502541
| 28> H       -0.515543   -1.762216    0.625327
| 29> Au       2.138195   -0.491597   -0.140080
| 30> Cl       1.419476   -1.043843   -2.240555
| 31> Cl       4.263347   -1.139807   -0.651257
| 32> Cl       2.780432    0.097050    1.979491
| 33> O       -3.309425   -1.870502    2.160546
| 34> O       -5.195970    0.025756   -1.845512
| 35> C       -4.244039   -2.927838    2.190952
| 36> H       -4.158173   -3.562934    1.304307
| 37> H       -4.005337   -3.514103    3.075014
| 38> H       -5.267556   -2.550903    2.273203
| 39> C       -6.143948   -1.010635   -1.979012
| 40> H       -6.717344   -0.779100   -2.873359
| 41> H       -5.656738   -1.981777   -2.105696
| 42> H       -6.818943   -1.047780   -1.118843
| 43> *
| 44>
| 45> %maxcore 5000
| 46>
| 47> %pal
| 48> nprocs = 24
| 49> end
| 50>
| 51>
| 52>                          ****END OF INPUT****

CARTESIAN COORDINATES (ANGSTROEM)
---------------------------------
  C     -2.466566    1.069840    0.238308
  C     -2.451721    0.070166    1.223311
  C     -3.390268   -0.966147    1.168446
  C     -4.328348   -1.022612    0.143865
  C     -4.333048   -0.013813   -0.819144
  C     -3.403006    1.027077   -0.774806
  H     -1.851874    0.172622    2.118430
  H     -5.044959   -1.827220    0.098719
  H     -3.408268    1.764270   -1.566273
  C     -1.433505    2.123552    0.250561
  C     -1.778108    3.466931    0.185146
  C     -0.064979    1.782593    0.286078
  C     -0.802488    4.453319    0.169404
  H     -2.826505    3.739000    0.161874
  C      0.907771    2.775168    0.263672
  C      0.538977    4.108677    0.211691
  H     -1.095064    5.495288    0.125305
  H      1.951961    2.493561    0.298441
  H      1.301937    4.876538    0.199556
  C      0.257789    0.377788    0.312230
  C     -0.304042   -0.722217    0.502541
  H     -0.515543   -1.762216    0.625327
  Au     2.138195   -0.491597   -0.140080
  Cl     1.419476   -1.043843   -2.240555
  Cl     4.263347   -1.139807   -0.651257
  Cl     2.780432    0.097050    1.979491
  O     -3.309425   -1.870502    2.160546
  O     -5.195970    0.025756   -1.845512
  C     -4.244039   -2.927838    2.190952
  H     -4.158173   -3.562934    1.304307
  H     -4.005337   -3.514103    3.075014
  H     -5.267556   -2.550903    2.273203
  C     -6.143948   -1.010635   -1.979012
  H     -6.717344   -0.779100   -2.873359
  H     -5.656738   -1.981777   -2.105696
  H     -6.818943   -1.047780   -1.118843

 Total Charge           Charge          ....    0
 Multiplicity           Mult            ....    1
 Number of Electrons    NEL             ....  196
 Basis Dimension        Dim             .... 1122

ORBITAL ENERGIES
----------------

  NO   OCC          E(Eh)            E(eV)
   0   2.0000    -101.336029     -2757.4935
   1   2.0000    -101.335126     -2757.4690
   2   2.0000    -101.328729     -2757.2949
   3   2.0000     -19.122654      -520.3539
   4   2.0000     -19.120920      -520.3067
   5   2.0000     -10.213674      -277.9282
   6   2.0000     -10.212878      -277.9065
   7   2.0000     -10.197182      -277.4794
   8   2.0000     -10.195590      -277.4361
   9   2.0000     -10.195363      -277.4299
  10   2.0000     -10.179698      -277.0037
  11   2.0000     -10.165546      -276.6186
  12   2.0000     -10.162482      -276.5352
  13   2.0000     -10.157759      -276.4067
  14   2.0000     -10.146219      -276.0927
  15   2.0000     -10.145744      -276.0797
  16   2.0000     -10.142117      -275.9810
  17   2.0000     -10.141085      -275.9530
  18   2.0000     -10.141021      -275.9512
  19   2.0000     -10.137385      -275.8523
  20   2.0000     -10.136031      -275.8154
  21   2.0000      -9.336665      -254.0636
  22   2.0000      -9.335749      -254.0387
  23   2.0000      -9.329332      -253.8640
  24   2.0000      -7.083628      -192.7553
  25   2.0000      -7.082779      -192.7322
  26   2.0000      -7.076621      -192.5646
  27   2.0000      -7.076029      -192.5485
  28   2.0000      -7.075413      -192.5318
  29   2.0000      -7.075131      -192.5241
  30   2.0000      -7.074411      -192.5045
  31   2.0000      -7.068677      -192.3485
  32   2.0000      -7.067753      -192.3233
  33   2.0000      -4.199551      -114.2756
  34   2.0000      -2.394099       -65.1468
  35   2.0000      -2.392000       -65.0896
  36   2.0000      -2.369608       -64.4803
  37   2.0000      -1.089608       -29.6498
  38   2.0000      -1.087426       -29.5904
  39   2.0000      -0.891101       -24.2481
  40   2.0000      -0.862942       -23.4818
  41   2.0000      -0.820934       -22.3387
  42   2.0000      -0.791023       -21.5248
  43   2.0000      -0.781296       -21.2602
  44   2.0000      -0.761037       -20.7089
  45   2.0000      -0.752368       -20.4730
  46   2.0000      -0.743255       -20.2250
  47   2.0000      -0.740722       -20.1561
  48   2.0000      -0.739963       -20.1354
  49   2.0000      -0.733960       -19.9721
  50   2.0000      -0.698138       -18.9973
  51   2.0000      -0.645149       -17.5554
  52   2.0000      -0.632607       -17.2141
  53   2.0000      -0.616096       -16.7648
  54   2.0000      -0.595301       -16.1990
  55   2.0000      -0.572957       -15.5909
  56   2.0000      -0.559680       -15.2297
  57   2.0000      -0.528944       -14.3933
  58   2.0000      -0.525206       -14.2916
  59   2.0000      -0.508076       -13.8254
  60   2.0000      -0.501726       -13.6526
  61   2.0000      -0.492872       -13.4117
  62   2.0000      -0.485229       -13.2037
  63   2.0000      -0.482798       -13.1376
  64   2.0000      -0.478608       -13.0236
  65   2.0000      -0.455991       -12.4082
  66   2.0000      -0.444567       -12.0973
  67   2.0000      -0.442221       -12.0334
  68   2.0000      -0.436401       -11.8751
  69   2.0000      -0.432816       -11.7775
  70   2.0000      -0.426389       -11.6026
  71   2.0000      -0.423483       -11.5235
  72   2.0000      -0.409649       -11.1471
  73   2.0000      -0.400048       -10.8858
  74   2.0000      -0.397350       -10.8124
  75   2.0000      -0.389530       -10.5997
  76   2.0000      -0.387668       -10.5490
  77   2.0000      -0.381756       -10.3881
  78   2.0000      -0.370445       -10.0803
  79   2.0000      -0.366291        -9.9673
  80   2.0000      -0.362247        -9.8572
  81   2.0000      -0.353385        -9.6161
  82   2.0000      -0.347815        -9.4645
  83   2.0000      -0.343094        -9.3361
  84   2.0000      -0.336038        -9.1441
  85   2.0000      -0.324392        -8.8272
  86   2.0000      -0.317798        -8.6477
  87   2.0000      -0.306589        -8.3427
  88   2.0000      -0.285662        -7.7733
  89   2.0000      -0.279191        -7.5972
  90   2.0000      -0.269558        -7.3350
  91   2.0000      -0.263815        -7.1788
  92   2.0000      -0.254964        -6.9379
  93   2.0000      -0.253999        -6.9117
  94   2.0000      -0.250875        -6.8266
  95   2.0000      -0.248844        -6.7714
  96   2.0000      -0.242556        -6.6003
  97   2.0000      -0.235994        -6.4217
  98   0.0000      -0.141135        -3.8405
  99   0.0000      -0.091919        -2.5012
 100   0.0000      -0.072070        -1.9611
 101   0.0000      -0.057695        -1.5700
 102   0.0000      -0.034877        -0.9491

MULLIKEN ATOMIC CHARGES
-----------------------
   0 C :    1.310385
   1 C :   -0.268375
   2 C :    0.452745
   3 C :   -0.503543
   4 C :    0.238219
   5 C :   -0.480771
   6 H :    0.123552
   7 H :    0.072737
   8 H :    0.124034
   9 C :    0.256917
  10 C :    0.015775
  11 C :    1.020043
  12 C :   -0.260035
  13 H :    0.089463
  14 C :   -0.176301
  15 C :   -0.289020
  16 H :    0.059101
  17 H :   -0.032075
  18 H :    0.045063
  19 C :    0.256076
  20 C :    0.306262
  21 H :   -0.180059
  22 Au:   -0.056833
  23 Cl:   -0.490399
  24 Cl:   -0.424119
  25 Cl:   -0.509809
  26 O :   -0.516771
  27 O :   -0.497245
  28 C :   -0.131501
  29 H :    0.117166
  30 H :    0.030360
  31 H :    0.131080
  32 C :   -0.104603
  33 H :    0.028739
  34 H :    0.122745
  35 H :    0.120999
Sum of atomic charges:    0.0000000

LOEWDIN ATOMIC CHARGES
----------------------
   0 C :   -0.127398
   1 C :    0.072279
   2 C :   -0.230036
   3 C :    0.130979
   4 C :   -0.218829
   5 C :    0.134234
   6 H :    0.036853
   7 H :   -0.014750
   8 H :    0.030802
   9 C :   -0.090656
  10 C :    0.068905
  11 C :   -0.151805
  12 C :    0.038327
  13 H :    0.016350
  14 C :    0.058510
  15 C :    0.040739
  16 H :    0.004461
  17 H :   -0.012922
  18 H :    0.006462
  19 C :   -0.337384
  20 C :    0.192312
  21 H :   -0.018352
  22 Au:    0.241661
  23 Cl:   -0.060976
  24 Cl:   -0.120897
  25 Cl:   -0.038851
  26 O :    0.000425
  27 O :    0.007160
  28 C :    0.134667
  29 H :    0.012103
  30 H :    0.012809
  31 H :    0.012367
  32 C :    0.133824
  33 H :    0.012501
  34 H :    0.012708
  35 H :    0.011418

  Mayer bond orders larger than 0.100000
B(  0-C ,  1-C ) :   0.4743 B(  0-C ,  3-C ) :  -0.3192 B(  0-C ,  4-C ) :  -0.1905
B(  0-C ,  5-C ) :   1.0102 B(  0-C ,  6-H ) :  -0.3924 B(  0-C ,  9-C ) :  -0.6399
B(  0-C , 10-C ) :  -0.1748 B(  0-C , 12-C ) :  -0.1743 B(  0-C , 14-C ) :  -0.1516
B(  0-C , 15-C ) :   0.1072 B(  1-C ,  2-C ) :   1.0092 B(  1-C ,  5-C ) :   0.1746
B(  1-C ,  6-H ) :   1.2043 B(  1-C ,  9-C ) :  -0.2008 B(  1-C , 10-C ) :   0.4570
B(  1-C , 12-C ) :  -0.1027 B(  1-C , 14-C ) :  -0.1174 B(  1-C , 20-C ) :   0.3178
B(  1-C , 26-O ) :  -0.1009 B(  2-C ,  3-C ) :   1.6117 B(  2-C ,  4-C ) :   0.1737
B(  2-C ,  6-H ) :   0.2912 B(  2-C , 10-C ) :  -0.3252 B(  2-C , 11-C ) :   0.1000
B(  2-C , 12-C ) :   0.1055 B(  2-C , 14-C ) :   0.1715 B(  2-C , 26-O ) :   0.4621
B(  3-C ,  4-C ) :   1.5464 B(  3-C ,  7-H ) :   0.8814 B(  3-C ,  9-C ) :   0.1178
B(  3-C , 10-C ) :   0.1034 B(  3-C , 11-C ) :  -0.1137 B(  4-C ,  5-C ) :   1.3941
B(  4-C , 10-C ) :  -0.2065 B(  4-C , 11-C ) :   0.1138 B(  4-C , 27-O ) :   0.6722
B(  5-C ,  8-H ) :   0.9979 B(  5-C ,  9-C ) :  -0.1851 B(  5-C , 10-C ) :   0.2670
B(  5-C , 11-C ) :  -0.1563 B(  5-C , 20-C ) :   0.1385 B(  5-C , 27-O ) :  -0.1060
B(  9-C , 10-C ) :   0.6216 B(  9-C , 11-C ) :   0.9010 B(  9-C , 14-C ) :   0.1074
B(  9-C , 19-C ) :  -0.1771 B( 10-C , 12-C ) :   1.2937 B( 10-C , 13-H ) :   0.9671
B( 11-C , 14-C ) :   0.8535 B( 11-C , 17-H ) :  -0.2480 B( 11-C , 22-Au) :  -0.7356
B( 11-C , 25-Cl) :  -0.2876 B( 12-C , 15-C ) :   1.2803 B( 12-C , 16-H ) :   1.0704
B( 14-C , 15-C ) :   1.3206 B( 14-C , 17-H ) :   1.1074 B( 15-C , 18-H ) :   1.0805
B( 19-C , 20-C ) :   1.5481 B( 19-C , 21-H ) :  -0.5537 B( 19-C , 22-Au) :   0.5142
B( 19-C , 25-Cl) :   0.3743 B( 20-C , 21-H ) :   1.5816 B( 20-C , 23-Cl) :  -0.3517
B( 20-C , 25-Cl) :  -0.4747 B( 22-Au, 23-Cl) :   1.0196 B( 22-Au, 24-Cl) :   0.7586
B( 22-Au, 25-Cl) :   1.0230 B( 23-Cl, 25-Cl) :   0.1550 B( 26-O , 28-C ) :   0.9762
B( 27-O , 32-C ) :   0.9538 B( 28-C , 29-H ) :   0.9557 B( 28-C , 30-H ) :   1.0663
B( 28-C , 31-H ) :   0.9583 B( 32-C , 33-H ) :   1.0612 B( 32-C , 34-H ) :   0.9646
B( 32-C , 35-H ) :   0.9612

Dispersion correction           -0.068483605
FINAL SINGLE POINT ENERGY     -2285.343981697797

DIPOLE MOMENT
-------------
                                X             Y             Z
Electronic contribution:    332.29783     -71.59374     -21.68258
Nuclear contribution   :   -337.50313      71.82916      22.27008
                        -----------------------------------------
Total Dipole Moment    :     -5.20529       0.23542       0.58750
                        -----------------------------------------
Magnitude (a.u.)       :      5.24363
Magnitude (Debye)      :     13.32824

Rotational constants in cm-1:     0.008801     0.003370     0.003018
Rotational constants in MHz :   263.837003   101.042363    90.466575

                             ****ORCA TERMINATED NORMALLY****
TOTAL RUN TIME: 0 days 0 hours 18 minutes 48 seconds 947 msec
