                         Program Version 4.2.0 -  RELEASE  -
|  1> #
|  2> # TMB28_T1 TPSSh-D3BJ/Def2-TZVPPD
|  3> #
|  4> ! tpssh d3bj def2-tzvppd def2/jk grid4 nofinalgrid
|  5>
|  6> *xyz 0 1
|  7> C       -0.472087   -1.270184   -0.544262
|  8> C       -1.371263   -0.408913   -0.410763
|  9> C       -0.283188   -2.679486   -0.928311
| 10> H       -1.250337   -3.132270   -1.147533
| 11> H        0.355340   -2.736203   -1.811412
| 12> H        0.207850   -3.220295   -0.118359
| 13> C       -2.087605    0.860649   -0.268000
| 14> O       -3.384272    0.602181    0.322954
| 15> C       -3.916162   -0.562532   -0.037107
| 16> O       -3.286397   -1.359772   -0.698080
| 17> C       -1.360806    1.791956    0.779385
| 18> O       -0.796250    2.763376    0.375084
| 19> C       -1.472551    1.401357    2.216606
| 20> H       -1.203914    0.352090    2.355444
| 21> H       -0.810137    2.031512    2.804683
| 22> H       -2.503869    1.535124    2.549793
| 23> C       -5.307153   -0.755812    0.455050
| 24> H       -5.663745   -1.741165    0.170882
| 25> H       -5.328847   -0.642840    1.539841
| 26> H       -5.952574    0.015643    0.032531
| 27> C       -2.259938    1.568911   -1.595082
| 28> H       -2.813189    2.495499   -1.446777
| 29> H       -1.275651    1.804221   -1.997337
| 30> H       -2.786554    0.924255   -2.298279
| 31> Au       1.278819   -0.204328   -0.045979
| 32> Cl       1.126476   -1.118462    2.051374
| 33> Cl       3.319842    0.694072    0.431966
| 34> Cl       1.372434    0.585236   -2.189571
| 35> *
| 36>
| 37> %maxcore 5000
| 38>
| 39> %pal
| 40> nprocs = 24
| 41> end
| 42>
| 43>
| 44>                          ****END OF INPUT****

CARTESIAN COORDINATES (ANGSTROEM)
---------------------------------
  C     -0.472087   -1.270184   -0.544262
  C     -1.371263   -0.408913   -0.410763
  C     -0.283188   -2.679486   -0.928311
  H     -1.250337   -3.132270   -1.147533
  H      0.355340   -2.736203   -1.811412
  H      0.207850   -3.220295   -0.118359
  C     -2.087605    0.860649   -0.268000
  O     -3.384272    0.602181    0.322954
  C     -3.916162   -0.562532   -0.037107
  O     -3.286397   -1.359772   -0.698080
  C     -1.360806    1.791956    0.779385
  O     -0.796250    2.763376    0.375084
  C     -1.472551    1.401357    2.216606
  H     -1.203914    0.352090    2.355444
  H     -0.810137    2.031512    2.804683
  H     -2.503869    1.535124    2.549793
  C     -5.307153   -0.755812    0.455050
  H     -5.663745   -1.741165    0.170882
  H     -5.328847   -0.642840    1.539841
  H     -5.952574    0.015643    0.032531
  C     -2.259938    1.568911   -1.595082
  H     -2.813189    2.495499   -1.446777
  H     -1.275651    1.804221   -1.997337
  H     -2.786554    0.924255   -2.298279
  Au     1.278819   -0.204328   -0.045979
  Cl     1.126476   -1.118462    2.051374
  Cl     3.319842    0.694072    0.431966
  Cl     1.372434    0.585236   -2.189571

 Total Charge           Charge          ....    0
 Multiplicity           Mult            ....    1
 Number of Electrons    NEL             ....  160
 Basis Dimension        Dim             ....  869

ORBITAL ENERGIES
----------------

  NO   OCC          E(Eh)            E(eV)
   0   2.0000    -101.345838     -2757.7605
   1   2.0000    -101.343434     -2757.6950
   2   2.0000    -101.332990     -2757.4108
   3   2.0000     -19.162585      -521.4404
   4   2.0000     -19.117139      -520.2038
   5   2.0000     -19.086316      -519.3651
   6   2.0000     -10.301497      -280.3180
   7   2.0000     -10.254683      -279.0441
   8   2.0000     -10.242604      -278.7154
   9   2.0000     -10.209912      -277.8258
  10   2.0000     -10.184505      -277.1345
  11   2.0000     -10.174032      -276.8495
  12   2.0000     -10.153816      -276.2994
  13   2.0000     -10.140824      -275.9458
  14   2.0000     -10.139397      -275.9070
  15   2.0000      -9.346546      -254.3325
  16   2.0000      -9.344081      -254.2654
  17   2.0000      -9.333586      -253.9798
  18   2.0000      -7.093377      -193.0206
  19   2.0000      -7.091091      -192.9584
  20   2.0000      -7.085903      -192.8172
  21   2.0000      -7.085433      -192.8044
  22   2.0000      -7.083383      -192.7487
  23   2.0000      -7.082847      -192.7341
  24   2.0000      -7.080967      -192.6829
  25   2.0000      -7.072805      -192.4608
  26   2.0000      -7.072045      -192.4401
  27   2.0000      -4.203749      -114.3898
  28   2.0000      -2.398196       -65.2582
  29   2.0000      -2.396942       -65.2241
  30   2.0000      -2.373446       -64.5847
  31   2.0000      -1.161184       -31.5974
  32   2.0000      -1.073105       -29.2007
  33   2.0000      -1.062574       -28.9141
  34   2.0000      -0.862112       -23.4593
  35   2.0000      -0.813318       -22.1315
  36   2.0000      -0.779937       -21.2232
  37   2.0000      -0.768945       -20.9241
  38   2.0000      -0.760382       -20.6910
  39   2.0000      -0.752272       -20.4704
  40   2.0000      -0.745791       -20.2940
  41   2.0000      -0.725094       -19.7308
  42   2.0000      -0.682105       -18.5610
  43   2.0000      -0.631037       -17.1714
  44   2.0000      -0.593929       -16.1616
  45   2.0000      -0.544948       -14.8288
  46   2.0000      -0.524810       -14.2808
  47   2.0000      -0.516529       -14.0555
  48   2.0000      -0.498233       -13.5576
  49   2.0000      -0.485908       -13.2222
  50   2.0000      -0.478529       -13.0214
  51   2.0000      -0.464393       -12.6368
  52   2.0000      -0.457615       -12.4523
  53   2.0000      -0.452947       -12.3253
  54   2.0000      -0.448318       -12.1994
  55   2.0000      -0.438697       -11.9375
  56   2.0000      -0.436561       -11.8794
  57   2.0000      -0.430862       -11.7244
  58   2.0000      -0.425961       -11.5910
  59   2.0000      -0.415669       -11.3109
  60   2.0000      -0.413985       -11.2651
  61   2.0000      -0.408859       -11.1256
  62   2.0000      -0.400568       -10.9000
  63   2.0000      -0.393663       -10.7121
  64   2.0000      -0.387938       -10.5563
  65   2.0000      -0.381453       -10.3799
  66   2.0000      -0.378769       -10.3068
  67   2.0000      -0.360320        -9.8048
  68   2.0000      -0.356306        -9.6956
  69   2.0000      -0.330420        -8.9912
  70   2.0000      -0.329013        -8.9529
  71   2.0000      -0.314009        -8.5446
  72   2.0000      -0.300772        -8.1844
  73   2.0000      -0.292943        -7.9714
  74   2.0000      -0.276095        -7.5129
  75   2.0000      -0.269448        -7.3320
  76   2.0000      -0.261724        -7.1219
  77   2.0000      -0.258291        -7.0285
  78   2.0000      -0.256862        -6.9896
  79   2.0000      -0.250336        -6.8120
  80   0.0000      -0.150140        -4.0855
  81   0.0000      -0.089287        -2.4296
  82   0.0000      -0.072340        -1.9685
  83   0.0000      -0.056107        -1.5268
  84   0.0000      -0.036475        -0.9925

MULLIKEN ATOMIC CHARGES
-----------------------
   0 C :   -0.728946
   1 C :    0.907724
   2 C :   -0.588364
   3 H :    0.015850
   4 H :    0.095283
   5 H :    0.117888
   6 C :    2.894671
   7 O :   -0.541552
   8 C :    0.652107
   9 O :   -0.582374
  10 C :    0.097699
  11 O :   -0.551629
  12 C :   -0.163128
  13 H :    0.154889
  14 H :   -0.044246
  15 H :    0.095013
  16 C :   -0.206542
  17 H :    0.037264
  18 H :    0.061864
  19 H :    0.062855
  20 C :   -0.574038
  21 H :    0.044716
  22 H :    0.072936
  23 H :    0.072128
  24 Au:    0.081479
  25 Cl:   -0.542699
  26 Cl:   -0.416661
  27 Cl:   -0.524186
Sum of atomic charges:   -0.0000000

LOEWDIN ATOMIC CHARGES
----------------------
   0 C :   -0.318444
   1 C :    0.033274
   2 C :    0.142151
   3 H :   -0.004061
   4 H :   -0.002937
   5 H :   -0.014919
   6 C :   -0.337081
   7 O :    0.092572
   8 C :   -0.433342
   9 O :    0.155589
  10 C :   -0.322123
  11 O :    0.150625
  12 C :    0.217037
  13 H :   -0.045407
  14 H :    0.009155
  15 H :    0.004532
  16 C :    0.266998
  17 H :    0.006648
  18 H :    0.011625
  19 H :    0.012128
  20 C :    0.229705
  21 H :    0.015068
  22 H :   -0.021266
  23 H :    0.011504
  24 Au:    0.270189
  25 Cl:   -0.007999
  26 Cl:   -0.110468
  27 Cl:   -0.010753

  Mayer bond orders larger than 0.100000
B(  0-C ,  1-C ) :  -1.1421 B(  0-C ,  2-C ) :   1.4038 B(  0-C ,  3-H ) :   0.1517
B(  0-C ,  6-C ) :  -0.6502 B(  0-C ,  9-O ) :   0.1977 B(  0-C , 24-Au) :   1.7835
B(  0-C , 25-Cl) :   0.6697 B(  0-C , 27-Cl) :   0.8754 B(  1-C ,  2-C ) :  -0.6365
B(  1-C ,  3-H ) :  -0.2226 B(  1-C ,  6-C ) :   0.4832 B(  1-C ,  8-C ) :  -0.1051
B(  1-C , 10-C ) :   0.7539 B(  1-C , 12-C ) :   0.1911 B(  1-C , 20-C ) :   0.3644
B(  1-C , 24-Au) :  -1.4066 B(  1-C , 25-Cl) :  -0.9575 B(  1-C , 27-Cl) :  -1.2161
B(  2-C ,  3-H ) :   1.0692 B(  2-C ,  4-H ) :   0.9335 B(  2-C ,  5-H ) :   0.9241
B(  6-C , 10-C ) :  -0.3346 B(  6-C , 11-O ) :   0.1107 B(  6-C , 12-C ) :  -0.1445
B(  6-C , 20-C ) :   0.7185 B(  6-C , 24-Au) :  -0.3226 B(  7-O ,  8-C ) :   1.1273
B(  7-O ,  9-O ) :   0.1325 B(  7-O , 10-C ) :   0.1968 B(  7-O , 20-C ) :   0.1670
B(  8-C ,  9-O ) :   1.4985 B(  8-C , 16-C ) :   1.1323 B( 10-C , 11-O ) :   1.3537
B( 10-C , 12-C ) :   1.4047 B( 11-O , 12-C ) :   0.1016 B( 12-C , 13-H ) :   0.8937
B( 12-C , 14-H ) :   1.0338 B( 12-C , 15-H ) :   0.8915 B( 16-C , 17-H ) :   1.0156
B( 16-C , 18-H ) :   0.9362 B( 16-C , 19-H ) :   0.9290 B( 20-C , 21-H ) :   0.9956
B( 20-C , 22-H ) :   0.9186 B( 20-C , 23-H ) :   0.9441 B( 20-C , 27-Cl) :  -0.1128
B( 24-Au, 25-Cl) :   1.0083 B( 24-Au, 26-Cl) :   0.6889 B( 24-Au, 27-Cl) :   0.9798
B( 25-Cl, 27-Cl) :   0.1505

Dispersion correction           -0.051523190
FINAL SINGLE POINT ENERGY     -2092.558337929933

DIPOLE MOMENT
-------------
                                X             Y             Z
Electronic contribution:    196.16448     -27.60712      -6.37930
Nuclear contribution   :   -200.70985      26.65253       6.49371
                        -----------------------------------------
Total Dipole Moment    :     -4.54537      -0.95459       0.11441
                        -----------------------------------------
Magnitude (a.u.)       :      4.64593
Magnitude (Debye)      :     11.80903

Rotational constants in cm-1:     0.016870     0.006757     0.006678
Rotational constants in MHz :   505.750873   202.581775   200.209050

                             ****ORCA TERMINATED NORMALLY****
TOTAL RUN TIME: 0 days 0 hours 8 minutes 17 seconds 902 msec
