                         Program Version 4.2.0 -  RELEASE  -
|  1> #
|  2> # TMB26_C1 TPSSh-D3BJ/Def2-TZVPPD
|  3> #
|  4> ! tpssh d3bj def2-tzvppd def2/jk grid4 nofinalgrid
|  5>
|  6> *xyz 0 1
|  7> C        2.167128    1.329895    0.039526
|  8> C        2.525644    0.739273   -1.166486
|  9> C        3.439975   -0.306708   -1.174383
| 10> C        3.999633   -0.766755    0.014468
| 11> C        3.640245   -0.158436    1.215781
| 12> C        2.734668    0.894978    1.231934
| 13> H        2.127840    1.087811   -2.109674
| 14> H        4.700013   -1.586902    0.006791
| 15> H        2.446371    1.320973    2.183519
| 16> C        1.181573    2.421289    0.068499
| 17> C        1.441057    3.589123    0.775147
| 18> C       -0.063177    2.327678   -0.606474
| 19> C        0.528793    4.632414    0.796916
| 20> H        2.386085    3.685262    1.294444
| 21> C       -0.980026    3.398239   -0.582106
| 22> C       -0.681931    4.545260    0.115481
| 23> H        0.768969    5.533734    1.348653
| 24> H       -1.927777    3.275890   -1.088947
| 25> H       -1.387173    5.365524    0.142831
| 26> C       -0.458921    1.154963   -1.244997
| 27> C       -0.929867    0.115196   -1.736149
| 28> H       -0.939302   -0.474790   -2.633558
| 29> Au      -1.934281   -0.752855   -0.093938
| 30> Cl      -0.307197   -2.360512   -0.181170
| 31> Cl      -3.051038   -1.907317    1.520981
| 32> Cl      -3.535590    0.885204   -0.082121
| 33> O        3.733505   -0.820421   -2.387318
| 34> O        4.122752   -0.537296    2.416831
| 35> C        4.611393   -1.919557   -2.452177
| 36> H        4.218896   -2.777901   -1.898414
| 37> H        4.691177   -2.180906   -3.505103
| 38> H        5.605429   -1.663635   -2.071314
| 39> C        4.983111   -1.650773    2.472584
| 40> H        5.218240   -1.797897    3.524384
| 41> H        4.497038   -2.550975    2.084317
| 42> H        5.911564   -1.470782    1.920934
| 43> *
| 44>
| 45> %maxcore 5000
| 46>
| 47> %pal
| 48> nprocs = 24
| 49> end
| 50>
| 51>
| 52>                          ****END OF INPUT****

CARTESIAN COORDINATES (ANGSTROEM)
---------------------------------
  C      2.167128    1.329895    0.039526
  C      2.525644    0.739273   -1.166486
  C      3.439975   -0.306708   -1.174383
  C      3.999633   -0.766755    0.014468
  C      3.640245   -0.158436    1.215781
  C      2.734668    0.894978    1.231934
  H      2.127840    1.087811   -2.109674
  H      4.700013   -1.586902    0.006791
  H      2.446371    1.320973    2.183519
  C      1.181573    2.421289    0.068499
  C      1.441057    3.589123    0.775147
  C     -0.063177    2.327678   -0.606474
  C      0.528793    4.632414    0.796916
  H      2.386085    3.685262    1.294444
  C     -0.980026    3.398239   -0.582106
  C     -0.681931    4.545260    0.115481
  H      0.768969    5.533734    1.348653
  H     -1.927777    3.275890   -1.088947
  H     -1.387173    5.365524    0.142831
  C     -0.458921    1.154963   -1.244997
  C     -0.929867    0.115196   -1.736149
  H     -0.939302   -0.474790   -2.633558
  Au    -1.934281   -0.752855   -0.093938
  Cl    -0.307197   -2.360512   -0.181170
  Cl    -3.051038   -1.907317    1.520981
  Cl    -3.535590    0.885204   -0.082121
  O      3.733505   -0.820421   -2.387318
  O      4.122752   -0.537296    2.416831
  C      4.611393   -1.919557   -2.452177
  H      4.218896   -2.777901   -1.898414
  H      4.691177   -2.180906   -3.505103
  H      5.605429   -1.663635   -2.071314
  C      4.983111   -1.650773    2.472584
  H      5.218240   -1.797897    3.524384
  H      4.497038   -2.550975    2.084317
  H      5.911564   -1.470782    1.920934

 Total Charge           Charge          ....    0
 Multiplicity           Mult            ....    1
 Number of Electrons    NEL             ....  196
 Basis Dimension        Dim             .... 1122

ORBITAL ENERGIES
----------------

  NO   OCC          E(Eh)            E(eV)
   0   2.0000    -101.337815     -2757.5421
   1   2.0000    -101.336793     -2757.5143
   2   2.0000    -101.332188     -2757.3890
   3   2.0000     -19.099974      -519.7367
   4   2.0000     -19.099141      -519.7140
   5   2.0000     -10.196445      -277.4594
   6   2.0000     -10.190059      -277.2856
   7   2.0000     -10.190042      -277.2851
   8   2.0000     -10.181318      -277.0477
   9   2.0000     -10.179418      -276.9960
  10   2.0000     -10.178532      -276.9719
  11   2.0000     -10.176580      -276.9188
  12   2.0000     -10.170945      -276.7655
  13   2.0000     -10.164951      -276.6024
  14   2.0000     -10.164229      -276.5827
  15   2.0000     -10.153574      -276.2928
  16   2.0000     -10.153059      -276.2788
  17   2.0000     -10.148348      -276.1506
  18   2.0000     -10.128433      -275.6087
  19   2.0000     -10.123257      -275.4678
  20   2.0000     -10.121488      -275.4197
  21   2.0000      -9.338534      -254.1144
  22   2.0000      -9.337434      -254.0845
  23   2.0000      -9.332750      -253.9570
  24   2.0000      -7.085429      -192.8043
  25   2.0000      -7.084464      -192.7781
  26   2.0000      -7.080304      -192.6649
  27   2.0000      -7.077848      -192.5980
  28   2.0000      -7.077389      -192.5855
  29   2.0000      -7.076687      -192.5665
  30   2.0000      -7.076225      -192.5539
  31   2.0000      -7.071886      -192.4358
  32   2.0000      -7.071119      -192.4149
  33   2.0000      -4.197114      -114.2093
  34   2.0000      -2.392076       -65.0917
  35   2.0000      -2.390537       -65.0498
  36   2.0000      -2.366159       -64.3864
  37   2.0000      -1.067264       -29.0417
  38   2.0000      -1.065276       -28.9876
  39   2.0000      -0.897840       -24.4315
  40   2.0000      -0.854367       -23.2485
  41   2.0000      -0.824178       -22.4270
  42   2.0000      -0.793214       -21.5845
  43   2.0000      -0.770074       -20.9548
  44   2.0000      -0.762904       -20.7597
  45   2.0000      -0.758984       -20.6530
  46   2.0000      -0.745311       -20.2810
  47   2.0000      -0.743380       -20.2284
  48   2.0000      -0.736315       -20.0362
  49   2.0000      -0.715878       -19.4800
  50   2.0000      -0.681934       -18.5564
  51   2.0000      -0.660229       -17.9657
  52   2.0000      -0.639645       -17.4056
  53   2.0000      -0.599264       -16.3068
  54   2.0000      -0.593010       -16.1366
  55   2.0000      -0.567003       -15.4289
  56   2.0000      -0.545738       -14.8503
  57   2.0000      -0.526610       -14.3298
  58   2.0000      -0.510812       -13.8999
  59   2.0000      -0.496746       -13.5171
  60   2.0000      -0.492116       -13.3912
  61   2.0000      -0.486979       -13.2514
  62   2.0000      -0.476263       -12.9598
  63   2.0000      -0.471722       -12.8362
  64   2.0000      -0.465831       -12.6759
  65   2.0000      -0.458096       -12.4654
  66   2.0000      -0.452138       -12.3033
  67   2.0000      -0.448266       -12.1979
  68   2.0000      -0.431620       -11.7450
  69   2.0000      -0.427486       -11.6325
  70   2.0000      -0.421289       -11.4639
  71   2.0000      -0.417700       -11.3662
  72   2.0000      -0.402545       -10.9538
  73   2.0000      -0.395303       -10.7567
  74   2.0000      -0.389703       -10.6043
  75   2.0000      -0.386394       -10.5143
  76   2.0000      -0.384620       -10.4660
  77   2.0000      -0.377109       -10.2617
  78   2.0000      -0.373976       -10.1764
  79   2.0000      -0.366211        -9.9651
  80   2.0000      -0.352084        -9.5807
  81   2.0000      -0.348774        -9.4906
  82   2.0000      -0.339689        -9.2434
  83   2.0000      -0.328641        -8.9428
  84   2.0000      -0.326284        -8.8786
  85   2.0000      -0.323143        -8.7932
  86   2.0000      -0.315618        -8.5884
  87   2.0000      -0.300716        -8.1829
  88   2.0000      -0.294009        -8.0004
  89   2.0000      -0.284784        -7.7494
  90   2.0000      -0.281402        -7.6573
  91   2.0000      -0.266540        -7.2529
  92   2.0000      -0.256686        -6.9848
  93   2.0000      -0.254485        -6.9249
  94   2.0000      -0.250297        -6.8109
  95   2.0000      -0.246324        -6.7028
  96   2.0000      -0.243984        -6.6391
  97   2.0000      -0.218217        -5.9380
  98   0.0000      -0.157004        -4.2723
  99   0.0000      -0.097553        -2.6545
 100   0.0000      -0.068802        -1.8722
 101   0.0000      -0.034516        -0.9392
 102   0.0000      -0.024775        -0.6741

MULLIKEN ATOMIC CHARGES
-----------------------
   0 C :    1.132399
   1 C :   -0.477856
   2 C :    0.381456
   3 C :   -0.435509
   4 C :    0.368997
   5 C :   -0.449244
   6 H :    0.142596
   7 H :    0.061088
   8 H :    0.125574
   9 C :    0.518262
  10 C :    0.065790
  11 C :    0.166622
  12 C :   -0.198523
  13 H :    0.106230
  14 C :   -0.225713
  15 C :   -0.144366
  16 H :    0.057824
  17 H :    0.095486
  18 H :    0.060443
  19 C :    0.834178
  20 C :   -0.508517
  21 H :    0.018648
  22 Au:    0.335538
  23 Cl:   -0.465825
  24 Cl:   -0.336317
  25 Cl:   -0.489822
  26 O :   -0.528600
  27 O :   -0.520347
  28 C :   -0.109519
  29 H :    0.113957
  30 H :    0.025285
  31 H :    0.118846
  32 C :   -0.106083
  33 H :    0.027507
  34 H :    0.124091
  35 H :    0.115423
Sum of atomic charges:    0.0000000

LOEWDIN ATOMIC CHARGES
----------------------
   0 C :   -0.138224
   1 C :    0.111747
   2 C :   -0.226723
   3 C :    0.129443
   4 C :   -0.226438
   5 C :    0.118878
   6 H :    0.024658
   7 H :   -0.016045
   8 H :    0.025088
   9 C :   -0.075271
  10 C :    0.079942
  11 C :   -0.151726
  12 C :    0.063181
  13 H :    0.019261
  14 C :    0.073730
  15 C :    0.048924
  16 H :    0.010877
  17 H :    0.001394
  18 H :    0.008874
  19 C :   -0.051393
  20 C :   -0.075826
  21 H :   -0.043570
  22 Au:    0.219146
  23 Cl:   -0.066995
  24 Cl:   -0.115649
  25 Cl:   -0.048304
  26 O :   -0.006433
  27 O :   -0.004286
  28 C :    0.123340
  29 H :    0.012754
  30 H :    0.010347
  31 H :    0.009405
  32 C :    0.123494
  33 H :    0.010619
  34 H :    0.012847
  35 H :    0.008932

  Mayer bond orders larger than 0.100000
B(  0-C ,  1-C ) :   0.6696 B(  0-C ,  3-C ) :  -0.2119 B(  0-C ,  4-C ) :  -0.1932
B(  0-C ,  5-C ) :   0.8680 B(  0-C ,  6-H ) :  -0.2240 B(  0-C ,  8-H ) :  -0.1426
B(  0-C ,  9-C ) :  -0.4898 B(  0-C , 10-C ) :  -0.2365 B(  0-C , 11-C ) :  -0.3208
B(  0-C , 12-C ) :  -0.1756 B(  0-C , 14-C ) :  -0.2625 B(  0-C , 19-C ) :   0.1678
B(  0-C , 20-C ) :   0.1092 B(  1-C ,  2-C ) :   1.5632 B(  1-C ,  5-C ) :   0.1619
B(  1-C ,  6-H ) :   0.9790 B(  1-C ,  9-C ) :  -0.1049 B(  1-C , 10-C ) :   0.2774
B(  1-C , 14-C ) :  -0.1663 B(  1-C , 19-C ) :   0.1630 B(  2-C ,  3-C ) :   1.4749
B(  2-C ,  6-H ) :   0.2000 B(  2-C ,  9-C ) :  -0.1872 B(  2-C , 10-C ) :  -0.1971
B(  2-C , 14-C ) :   0.1476 B(  2-C , 26-O ) :   0.5025 B(  3-C ,  4-C ) :   1.4707
B(  3-C ,  7-H ) :   0.8679 B(  4-C ,  5-C ) :   1.4799 B(  4-C ,  8-H ) :   0.1093
B(  4-C , 27-O ) :   0.5920 B(  5-C ,  8-H ) :   0.9807 B(  5-C ,  9-C ) :  -0.2516
B(  5-C , 10-C ) :   0.2291 B(  5-C , 11-C ) :  -0.1416 B(  9-C , 10-C ) :   0.7862
B(  9-C , 11-C ) :   0.7339 B(  9-C , 14-C ) :   0.1670 B(  9-C , 19-C ) :  -0.6997
B(  9-C , 20-C ) :   0.3847 B( 10-C , 12-C ) :   1.3531 B( 10-C , 13-H ) :   0.9308
B( 11-C , 14-C ) :   1.5896 B( 11-C , 15-C ) :  -0.2780 B( 11-C , 17-H ) :   0.1170
B( 11-C , 19-C ) :   0.5950 B( 11-C , 20-C ) :  -0.8801 B( 11-C , 22-Au) :  -0.1047
B( 12-C , 15-C ) :   1.2839 B( 12-C , 16-H ) :   1.0502 B( 14-C , 15-C ) :   1.2489
B( 14-C , 17-H ) :   0.9357 B( 14-C , 19-C ) :  -0.3938 B( 15-C , 18-H ) :   1.0643
B( 19-C , 20-C ) :   0.9645 B( 19-C , 22-Au) :  -0.4235 B( 19-C , 23-Cl) :  -0.5623
B( 19-C , 24-Cl) :   0.1058 B( 19-C , 25-Cl) :  -0.1625 B( 20-C , 21-H ) :   1.0373
B( 20-C , 22-Au) :   1.1109 B( 20-C , 23-Cl) :   0.4472 B( 22-Au, 23-Cl) :   0.8013
B( 22-Au, 24-Cl) :   0.7476 B( 22-Au, 25-Cl) :   0.8645 B( 23-Cl, 25-Cl) :   0.1512
B( 26-O , 28-C ) :   0.9671 B( 27-O , 32-C ) :   0.9521 B( 28-C , 29-H ) :   0.9680
B( 28-C , 30-H ) :   1.0600 B( 28-C , 31-H ) :   0.9572 B( 32-C , 33-H ) :   1.0590
B( 32-C , 34-H ) :   0.9685 B( 32-C , 35-H ) :   0.9591

Dispersion correction           -0.066899617
FINAL SINGLE POINT ENERGY     -2285.357865382269

DIPOLE MOMENT
-------------
                                X             Y             Z
Electronic contribution:   -300.16556    -110.61172     -12.33580
Nuclear contribution   :    303.49748     112.54151      11.37787
                        -----------------------------------------
Total Dipole Moment    :      3.33192       1.92980      -0.95793
                        -----------------------------------------
Magnitude (a.u.)       :      3.96780
Magnitude (Debye)      :     10.08535

Rotational constants in cm-1:     0.007370     0.004054     0.003244
Rotational constants in MHz :   220.947502   121.548879    97.259691

                             ****ORCA TERMINATED NORMALLY****
TOTAL RUN TIME: 0 days 0 hours 16 minutes 42 seconds 617 msec
