                         Program Version 4.2.0 -  RELEASE  -
|  1> #
|  2> # TMB20_I1 TPSSh-D3BJ/Def2-TZVPPD
|  3> #
|  4> ! tpssh d3bj def2-tzvppd def2/jk grid4 nofinalgrid
|  5>
|  6> *xyz 0 1
|  7> Re       0.721260    0.301703   -0.012347
|  8> C        1.851141    0.452958   -1.678261
|  9> C        1.971728    0.634914    1.425372
| 10> C        0.763580    2.214165   -0.101283
| 11> Br       1.710512   -2.064741    0.019177
| 12> O        0.816608    3.358474   -0.166463
| 13> O        2.493283    0.513036   -2.612271
| 14> O        2.652573    0.808904    2.320449
| 15> C       -1.780395   -0.133590    1.665167
| 16> C       -0.470905   -0.371203    1.638632
| 17> C       -2.365069    0.652857    0.526821
| 18> C       -3.493010   -0.159458   -0.075600
| 19> O       -3.300943   -1.161632   -0.733339
| 20> O       -4.693453    0.297769    0.229376
| 21> C       -1.280010    0.876972   -0.512116
| 22> O       -0.953000   -0.240509   -1.297416
| 23> H       -1.566319   -0.977006   -1.049921
| 24> C       -5.797043   -0.483161   -0.244906
| 25> H       -6.688437    0.024549    0.111717
| 26> H       -5.787691   -0.527184   -1.333247
| 27> H       -5.742358   -1.494851    0.155119
| 28> H       -0.050439   -0.962173    2.449658
| 29> H       -2.758296    1.619346    0.851818
| 30> H       -2.454065   -0.501260    2.435709
| 31> H       -1.435420    1.741704   -1.151672
| 32> *
| 33>
| 34> %maxcore 5000
| 35>
| 36> %pal
| 37> nprocs = 24
| 38> end
| 39>
| 40>
| 41>                          ****END OF INPUT****

CARTESIAN COORDINATES (ANGSTROEM)
---------------------------------
  Re     0.721260    0.301703   -0.012347
  C      1.851141    0.452958   -1.678261
  C      1.971728    0.634914    1.425372
  C      0.763580    2.214165   -0.101283
  Br     1.710512   -2.064741    0.019177
  O      0.816608    3.358474   -0.166463
  O      2.493283    0.513036   -2.612271
  O      2.652573    0.808904    2.320449
  C     -1.780395   -0.133590    1.665167
  C     -0.470905   -0.371203    1.638632
  C     -2.365069    0.652857    0.526821
  C     -3.493010   -0.159458   -0.075600
  O     -3.300943   -1.161632   -0.733339
  O     -4.693453    0.297769    0.229376
  C     -1.280010    0.876972   -0.512116
  O     -0.953000   -0.240509   -1.297416
  H     -1.566319   -0.977006   -1.049921
  C     -5.797043   -0.483161   -0.244906
  H     -6.688437    0.024549    0.111717
  H     -5.787691   -0.527184   -1.333247
  H     -5.742358   -1.494851    0.155119
  H     -0.050439   -0.962173    2.449658
  H     -2.758296    1.619346    0.851818
  H     -2.454065   -0.501260    2.435709
  H     -1.435420    1.741704   -1.151672

 Total Charge           Charge          ....    0
 Multiplicity           Mult            ....    1
 Number of Electrons    NEL             ....  160
 Basis Dimension        Dim             ....  825

ORBITAL ENERGIES
----------------

  NO   OCC          E(Eh)            E(eV)
   0   2.0000    -482.517596    -13129.9713
   1   2.0000     -62.231239     -1693.3981
   2   2.0000     -56.016367     -1524.2828
   3   2.0000     -56.014456     -1524.2308
   4   2.0000     -56.014025     -1524.2191
   5   2.0000     -19.146576      -521.0048
   6   2.0000     -19.142596      -520.8965
   7   2.0000     -19.141621      -520.8700
   8   2.0000     -19.139532      -520.8131
   9   2.0000     -19.132140      -520.6120
  10   2.0000     -19.083096      -519.2774
  11   2.0000     -10.274769      -279.5907
  12   2.0000     -10.241566      -278.6872
  13   2.0000     -10.240347      -278.6540
  14   2.0000     -10.238385      -278.6006
  15   2.0000     -10.220997      -278.1275
  16   2.0000     -10.195304      -277.4283
  17   2.0000     -10.166164      -276.6354
  18   2.0000     -10.121641      -275.4239
  19   2.0000     -10.103319      -274.9253
  20   2.0000      -8.576947      -233.3906
  21   2.0000      -6.395311      -174.0253
  22   2.0000      -6.389463      -173.8661
  23   2.0000      -6.388184      -173.8313
  24   2.0000      -3.197576       -87.0105
  25   2.0000      -2.519321       -68.5542
  26   2.0000      -2.518016       -68.5187
  27   2.0000      -2.517075       -68.4931
  28   2.0000      -2.512479       -68.3680
  29   2.0000      -2.512442       -68.3670
  30   2.0000      -1.772418       -48.2300
  31   2.0000      -1.768291       -48.1177
  32   2.0000      -1.756621       -47.8001
  33   2.0000      -1.130933       -30.7743
  34   2.0000      -1.130672       -30.7672
  35   2.0000      -1.126148       -30.6440
  36   2.0000      -1.116196       -30.3732
  37   2.0000      -1.089940       -29.6588
  38   2.0000      -1.037731       -28.2381
  39   2.0000      -0.828510       -22.5449
  40   2.0000      -0.749818       -20.4036
  41   2.0000      -0.715052       -19.4576
  42   2.0000      -0.705868       -19.2077
  43   2.0000      -0.669975       -18.2309
  44   2.0000      -0.597134       -16.2488
  45   2.0000      -0.588261       -16.0074
  46   2.0000      -0.568966       -15.4823
  47   2.0000      -0.562861       -15.3162
  48   2.0000      -0.561061       -15.2672
  49   2.0000      -0.533492       -14.5171
  50   2.0000      -0.523437       -14.2435
  51   2.0000      -0.509950       -13.8764
  52   2.0000      -0.500798       -13.6274
  53   2.0000      -0.494737       -13.4625
  54   2.0000      -0.480799       -13.0832
  55   2.0000      -0.474165       -12.9027
  56   2.0000      -0.467651       -12.7254
  57   2.0000      -0.462154       -12.5758
  58   2.0000      -0.459924       -12.5152
  59   2.0000      -0.457887       -12.4597
  60   2.0000      -0.452981       -12.3262
  61   2.0000      -0.443833       -12.0773
  62   2.0000      -0.437805       -11.9133
  63   2.0000      -0.437131       -11.8950
  64   2.0000      -0.427537       -11.6339
  65   2.0000      -0.417192       -11.3524
  66   2.0000      -0.410808       -11.1786
  67   2.0000      -0.382027       -10.3955
  68   2.0000      -0.368223       -10.0199
  69   2.0000      -0.366400        -9.9703
  70   2.0000      -0.333036        -9.0624
  71   2.0000      -0.329013        -8.9529
  72   2.0000      -0.312555        -8.5050
  73   2.0000      -0.297914        -8.1066
  74   2.0000      -0.296043        -8.0558
  75   2.0000      -0.277376        -7.5478
  76   2.0000      -0.261928        -7.1274
  77   2.0000      -0.249808        -6.7976
  78   2.0000      -0.236024        -6.4225
  79   2.0000      -0.226538        -6.1644
  80   0.0000      -0.102215        -2.7814
  81   0.0000      -0.068830        -1.8730
  82   0.0000      -0.047249        -1.2857
  83   0.0000      -0.037994        -1.0339
  84   0.0000      -0.028562        -0.7772

MULLIKEN ATOMIC CHARGES
-----------------------
   0 Re:   -0.059665
   1 C :    0.617337
   2 C :    0.797766
   3 C :    0.152807
   4 Br:   -0.583446
   5 O :   -0.387562
   6 O :   -0.283169
   7 O :   -0.318918
   8 C :   -1.220767
   9 C :    0.299029
  10 C :    1.617077
  11 C :    0.653554
  12 O :   -0.689894
  13 O :   -0.336022
  14 C :   -0.185952
  15 O :   -0.432834
  16 H :    0.268379
  17 C :   -0.010974
  18 H :    0.043326
  19 H :    0.082344
  20 H :    0.088941
  21 H :   -0.016068
  22 H :   -0.149123
  23 H :    0.009217
  24 H :    0.044619
Sum of atomic charges:    0.0000000

LOEWDIN ATOMIC CHARGES
----------------------
   0 Re:    0.624094
   1 C :   -0.244452
   2 C :   -0.313615
   3 C :   -0.283281
   4 Br:    0.169141
   5 O :    0.146098
   6 O :    0.152853
   7 O :    0.165163
   8 C :   -0.036858
   9 C :   -0.089480
  10 C :   -0.108335
  11 C :   -0.432682
  12 O :    0.143845
  13 O :    0.056157
  14 C :   -0.154055
  15 O :    0.141660
  16 H :   -0.167448
  17 C :    0.183646
  18 H :    0.010031
  19 H :    0.012364
  20 H :    0.013775
  21 H :   -0.065109
  22 H :    0.050915
  23 H :    0.004337
  24 H :    0.021235

  Mayer bond orders larger than 0.100000
B(  0-Re,  1-C ) :   1.0301 B(  0-Re,  2-C ) :   1.2757 B(  0-Re,  3-C ) :   1.3990
B(  0-Re,  4-Br) :   0.3013 B(  0-Re,  6-O ) :   0.1115 B(  0-Re,  7-O ) :   0.1005
B(  0-Re,  8-C ) :   0.1706 B(  0-Re,  9-C ) :   0.5450 B(  0-Re, 14-C ) :   0.7217
B(  0-Re, 15-O ) :   0.4802 B(  1-C ,  6-O ) :   2.0634 B(  2-C ,  7-O ) :   1.9996
B(  3-C ,  5-O ) :   1.8737 B(  3-C , 14-C ) :   0.2101 B(  8-C ,  9-C ) :   2.0077
B(  8-C , 10-C ) :   0.1382 B(  8-C , 11-C ) :   0.2997 B(  8-C , 14-C ) :   0.5084
B(  8-C , 23-H ) :   1.1485 B(  9-C , 10-C ) :  -0.1036 B(  9-C , 21-H ) :   0.9900
B( 10-C , 11-C ) :   0.5610 B( 10-C , 14-C ) :   0.7042 B( 10-C , 15-O ) :   0.1033
B( 10-C , 22-H ) :   0.8849 B( 10-C , 23-H ) :  -0.1596 B( 11-C , 12-O ) :   1.1428
B( 11-C , 13-O ) :   0.7070 B( 11-C , 14-C ) :   0.2605 B( 12-O , 13-O ) :   0.1028
B( 12-O , 14-C ) :   0.1245 B( 13-O , 17-C ) :   0.8794 B( 14-C , 15-O ) :   0.5187
B( 14-C , 24-H ) :   0.9450 B( 15-O , 16-H ) :   0.8745 B( 17-C , 18-H ) :   1.0455
B( 17-C , 19-H ) :   0.9696 B( 17-C , 20-H ) :   0.9619

Dispersion correction           -0.045097058
FINAL SINGLE POINT ENERGY     -3451.993777929900

DIPOLE MOMENT
-------------
                                X             Y             Z
Electronic contribution:    122.95362      29.80320      -3.23183
Nuclear contribution   :   -125.53088     -28.89018       3.09124
                        -----------------------------------------
Total Dipole Moment    :     -2.57725       0.91302      -0.14059
                        -----------------------------------------
Magnitude (a.u.)       :      2.73781
Magnitude (Debye)      :      6.95896

Rotational constants in cm-1:     0.016025     0.007116     0.006337
Rotational constants in MHz :   480.407323   213.341783   189.987107

                             ****ORCA TERMINATED NORMALLY****
TOTAL RUN TIME: 0 days 0 hours 6 minutes 10 seconds 998 msec
