                         Program Version 4.2.0 -  RELEASE  -
|  1> #
|  2> # TMB29_T1 TPSSh-D3BJ/Def2-TZVPPD
|  3> #
|  4> ! tpssh d3bj def2-tzvppd def2/jk grid4 nofinalgrid
|  5>
|  6> *xyz 1 1
|  7> C        0.302195   -1.452011   -0.105192
|  8> C        1.172851   -0.582511    0.135564
|  9> C        0.213900   -2.914548   -0.330337
| 10> H        1.214756   -3.345744   -0.317276
| 11> H       -0.388020   -3.382295    0.449588
| 12> H       -0.265099   -3.130327   -1.285361
| 13> C        1.829635    0.694580    0.494281
| 14> O        3.171960    0.697894   -0.020842
| 15> C        3.732653   -0.510299   -0.087290
| 16> O        3.070225   -1.500320    0.142290
| 17> C        1.080449    1.884401   -0.190647
| 18> O        0.030957    2.232541    0.278513
| 19> C        1.716450    2.521139   -1.379228
| 20> H        1.946637    1.771224   -2.139595
| 21> H        1.044796    3.276244   -1.779459
| 22> H        2.667103    2.978996   -1.097340
| 23> C        5.172060   -0.490501   -0.447138
| 24> H        5.507658   -1.496958   -0.678577
| 25> H        5.341426    0.179166   -1.290238
| 26> H        5.741456   -0.101237    0.400021
| 27> C        1.875471    0.903584    2.001010
| 28> H        2.434564    1.811885    2.227294
| 29> H        0.861108    1.010944    2.380408
| 30> H        2.353249    0.052039    2.484190
| 31> Au      -1.471331   -0.309724   -0.041930
| 32> P       -3.515153    0.680562    0.009165
| 33> H       -3.799713    1.607377   -1.007127
| 34> H       -4.633094   -0.165367   -0.073799
| 35> H       -3.823490    1.429925    1.156436
| 36> *
| 37>
| 38> %maxcore 5000
| 39>
| 40> %pal
| 41> nprocs = 24
| 42> end
| 43>
| 44>
| 45>                          ****END OF INPUT****

CARTESIAN COORDINATES (ANGSTROEM)
---------------------------------
  C      0.302195   -1.452011   -0.105192
  C      1.172851   -0.582511    0.135564
  C      0.213900   -2.914548   -0.330337
  H      1.214756   -3.345744   -0.317276
  H     -0.388020   -3.382295    0.449588
  H     -0.265099   -3.130327   -1.285361
  C      1.829635    0.694580    0.494281
  O      3.171960    0.697894   -0.020842
  C      3.732653   -0.510299   -0.087290
  O      3.070225   -1.500320    0.142290
  C      1.080449    1.884401   -0.190647
  O      0.030957    2.232541    0.278513
  C      1.716450    2.521139   -1.379228
  H      1.946637    1.771224   -2.139595
  H      1.044796    3.276244   -1.779459
  H      2.667103    2.978996   -1.097340
  C      5.172060   -0.490501   -0.447138
  H      5.507658   -1.496958   -0.678577
  H      5.341426    0.179166   -1.290238
  H      5.741456   -0.101237    0.400021
  C      1.875471    0.903584    2.001010
  H      2.434564    1.811885    2.227294
  H      0.861108    1.010944    2.380408
  H      2.353249    0.052039    2.484190
  Au    -1.471331   -0.309724   -0.041930
  P     -3.515153    0.680562    0.009165
  H     -3.799713    1.607377   -1.007127
  H     -4.633094   -0.165367   -0.073799
  H     -3.823490    1.429925    1.156436

 Total Charge           Charge          ....    1
 Multiplicity           Mult            ....    1
 Number of Electrons    NEL             ....  126
 Basis Dimension        Dim             ....  815

ORBITAL ENERGIES
----------------

  NO   OCC          E(Eh)            E(eV)
   0   2.0000     -77.107148     -2098.1922
   1   2.0000     -19.252875      -523.8974
   2   2.0000     -19.206359      -522.6316
   3   2.0000     -19.189057      -522.1608
   4   2.0000     -10.389457      -282.7115
   5   2.0000     -10.354536      -281.7612
   6   2.0000     -10.346073      -281.5309
   7   2.0000     -10.310405      -280.5604
   8   2.0000     -10.273785      -279.5639
   9   2.0000     -10.251257      -278.9509
  10   2.0000     -10.248096      -278.8649
  11   2.0000     -10.243483      -278.7393
  12   2.0000     -10.242279      -278.7066
  13   2.0000      -6.664023      -181.3373
  14   2.0000      -4.812864      -130.9647
  15   2.0000      -4.812836      -130.9639
  16   2.0000      -4.810371      -130.8968
  17   2.0000      -4.255442      -115.7965
  18   2.0000      -2.456936       -66.8566
  19   2.0000      -2.438028       -66.3421
  20   2.0000      -2.437710       -66.3334
  21   2.0000      -1.253002       -34.0959
  22   2.0000      -1.173731       -31.9389
  23   2.0000      -1.153711       -31.3941
  24   2.0000      -0.956103       -26.0169
  25   2.0000      -0.905712       -24.6457
  26   2.0000      -0.865413       -23.5491
  27   2.0000      -0.860995       -23.4289
  28   2.0000      -0.820031       -22.3142
  29   2.0000      -0.802796       -21.8452
  30   2.0000      -0.778494       -21.1839
  31   2.0000      -0.724323       -19.7098
  32   2.0000      -0.692968       -18.8566
  33   2.0000      -0.636462       -17.3190
  34   2.0000      -0.620148       -16.8751
  35   2.0000      -0.611451       -16.6384
  36   2.0000      -0.590304       -16.0630
  37   2.0000      -0.580700       -15.8016
  38   2.0000      -0.571468       -15.5504
  39   2.0000      -0.561546       -15.2804
  40   2.0000      -0.553868       -15.0715
  41   2.0000      -0.552320       -15.0294
  42   2.0000      -0.549951       -14.9649
  43   2.0000      -0.541957       -14.7474
  44   2.0000      -0.538723       -14.6594
  45   2.0000      -0.526537       -14.3278
  46   2.0000      -0.526289       -14.3210
  47   2.0000      -0.522972       -14.2308
  48   2.0000      -0.518014       -14.0959
  49   2.0000      -0.502921       -13.6852
  50   2.0000      -0.497592       -13.5402
  51   2.0000      -0.493171       -13.4199
  52   2.0000      -0.481115       -13.0918
  53   2.0000      -0.463621       -12.6158
  54   2.0000      -0.458613       -12.4795
  55   2.0000      -0.448853       -12.2139
  56   2.0000      -0.448250       -12.1975
  57   2.0000      -0.433208       -11.7882
  58   2.0000      -0.430611       -11.7175
  59   2.0000      -0.411695       -11.2028
  60   2.0000      -0.401164       -10.9162
  61   2.0000      -0.385954       -10.5024
  62   2.0000      -0.373121       -10.1531
  63   0.0000      -0.210840        -5.7372
  64   0.0000      -0.180291        -4.9060
  65   0.0000      -0.165245        -4.4965
  66   0.0000      -0.157999        -4.2994
  67   0.0000      -0.143101        -3.8940

MULLIKEN ATOMIC CHARGES
-----------------------
   0 C :    0.569630
   1 C :   -0.914028
   2 C :   -0.300306
   3 H :    0.033608
   4 H :    0.093183
   5 H :    0.094615
   6 C :    2.449942
   7 O :   -0.494423
   8 C :    0.634551
   9 O :   -0.563992
  10 C :    0.328034
  11 O :   -0.603124
  12 C :   -0.134098
  13 H :    0.075268
  14 H :    0.016512
  15 H :    0.077723
  16 C :   -0.229615
  17 H :    0.041344
  18 H :    0.071321
  19 H :    0.064503
  20 C :   -0.604911
  21 H :    0.060434
  22 H :    0.069634
  23 H :    0.091897
  24 Au:   -0.290329
  25 P :    0.063798
  26 H :    0.099139
  27 H :    0.099275
  28 H :    0.100416
Sum of atomic charges:    1.0000000

LOEWDIN ATOMIC CHARGES
----------------------
   0 C :   -0.252361
   1 C :    0.033530
   2 C :    0.135625
   3 H :   -0.005243
   4 H :   -0.004818
   5 H :   -0.007102
   6 C :   -0.344489
   7 O :    0.083425
   8 C :   -0.416219
   9 O :    0.157131
  10 C :   -0.327844
  11 O :    0.066551
  12 C :    0.242256
  13 H :    0.012958
  14 H :    0.009380
  15 H :    0.014451
  16 C :    0.277031
  17 H :    0.012580
  18 H :    0.014519
  19 H :    0.020218
  20 C :    0.248242
  21 H :    0.020287
  22 H :    0.007813
  23 H :    0.015680
  24 Au:    0.617943
  25 P :    0.852241
  26 H :   -0.160448
  27 H :   -0.164397
  28 H :   -0.158941

  Mayer bond orders larger than 0.100000
B(  0-C ,  1-C ) :   0.9865 B(  0-C ,  2-C ) :   1.3028 B(  0-C , 24-Au) :   0.5555
B(  1-C ,  2-C ) :  -0.3423 B(  1-C ,  6-C ) :   0.3034 B(  1-C , 10-C ) :   0.2926
B(  1-C , 20-C ) :   0.3012 B(  1-C , 24-Au) :   0.1820 B(  2-C ,  3-H ) :   1.0424
B(  2-C ,  4-H ) :   0.9180 B(  2-C ,  5-H ) :   0.9230 B(  6-C ,  7-O ) :   0.2031
B(  6-C ,  8-C ) :  -0.1175 B(  6-C , 10-C ) :   0.3167 B(  6-C , 20-C ) :   0.7177
B(  7-O ,  8-C ) :   1.0861 B(  7-O ,  9-O ) :   0.1266 B(  7-O , 10-C ) :   0.1050
B(  7-O , 20-C ) :   0.1974 B(  8-C ,  9-O ) :   1.5266 B(  8-C , 16-C ) :   1.1797
B( 10-C , 11-O ) :   1.2567 B( 10-C , 12-C ) :   1.2823 B( 11-O , 12-C ) :   0.1294
B( 12-C , 13-H ) :   0.8996 B( 12-C , 14-H ) :   1.0571 B( 12-C , 15-H ) :   0.8774
B( 16-C , 17-H ) :   0.9982 B( 16-C , 18-H ) :   0.9418 B( 16-C , 19-H ) :   0.9158
B( 20-C , 21-H ) :   0.9934 B( 20-C , 22-H ) :   0.9542 B( 20-C , 23-H ) :   0.9410
B( 24-Au, 25-P ) :   1.0348 B( 25-P , 26-H ) :   0.9342 B( 25-P , 27-H ) :   0.9305
B( 25-P , 28-H ) :   0.9354

Dispersion correction           -0.041830378
FINAL SINGLE POINT ENERGY     -1054.806580762622

DIPOLE MOMENT
-------------
                                X             Y             Z
Electronic contribution:   -212.00059     -43.02715      -5.71953
Nuclear contribution   :    212.91002      43.46471       5.39034
                        -----------------------------------------
Total Dipole Moment    :      0.90943       0.43756      -0.32919
                        -----------------------------------------
Magnitude (a.u.)       :      1.06155
Magnitude (Debye)      :      2.69824

Rotational constants in cm-1:     0.027720     0.008314     0.006995
Rotational constants in MHz :   831.016337   249.254276   209.717578

                             ****ORCA TERMINATED NORMALLY****
TOTAL RUN TIME: 0 days 0 hours 5 minutes 54 seconds 99 msec
