                         Program Version 4.2.0 -  RELEASE  -
|  1> #
|  2> # TMB20_T2 TPSSh-D3BJ/Def2-TZVPPD
|  3> #
|  4> ! tpssh d3bj def2-tzvppd def2/jk grid4 nofinalgrid
|  5>
|  6> *xyz 0 1
|  7> Re       0.995979    0.090170   -0.058185
|  8> C        2.014396   -1.161086   -1.123855
|  9> C        1.992692   -0.479631    1.452527
| 10> C        2.318376    1.423242   -0.367549
| 11> Br      -0.834689   -1.732689    0.254349
| 12> O        3.132368    2.217573   -0.550268
| 13> O        2.612239   -1.888693   -1.769425
| 14> O        2.568963   -0.789175    2.393169
| 15> C       -1.540273    1.685786    1.546594
| 16> C       -0.263771    1.318522    1.475095
| 17> C       -2.014636    1.773094    0.144138
| 18> C       -2.942101    0.711821   -0.394874
| 19> O       -2.841029    0.284728   -1.529710
| 20> O       -3.882762    0.367872    0.447794
| 21> C       -0.602735    1.743713   -0.435058
| 22> O       -0.382838    0.990264   -1.561710
| 23> H       -1.229741    0.476538   -1.736592
| 24> C       -4.752144   -0.688497    0.013665
| 25> H       -5.447661   -0.845693    0.832416
| 26> H       -5.279179   -0.395656   -0.893281
| 27> H       -4.161178   -1.583930   -0.173849
| 28> H        0.422554    1.379477    2.313653
| 29> H       -2.484103    2.733887   -0.106082
| 30> H       -2.090878    1.979492    2.431124
| 31> H       -0.128477    2.714877   -0.508669
| 32> *
| 33>
| 34> %maxcore 5000
| 35>
| 36> %pal
| 37> nprocs = 24
| 38> end
| 39>
| 40>
| 41>                          ****END OF INPUT****

CARTESIAN COORDINATES (ANGSTROEM)
---------------------------------
  Re     0.995979    0.090170   -0.058185
  C      2.014396   -1.161086   -1.123855
  C      1.992692   -0.479631    1.452527
  C      2.318376    1.423242   -0.367549
  Br    -0.834689   -1.732689    0.254349
  O      3.132368    2.217573   -0.550268
  O      2.612239   -1.888693   -1.769425
  O      2.568963   -0.789175    2.393169
  C     -1.540273    1.685786    1.546594
  C     -0.263771    1.318522    1.475095
  C     -2.014636    1.773094    0.144138
  C     -2.942101    0.711821   -0.394874
  O     -2.841029    0.284728   -1.529710
  O     -3.882762    0.367872    0.447794
  C     -0.602735    1.743713   -0.435058
  O     -0.382838    0.990264   -1.561710
  H     -1.229741    0.476538   -1.736592
  C     -4.752144   -0.688497    0.013665
  H     -5.447661   -0.845693    0.832416
  H     -5.279179   -0.395656   -0.893281
  H     -4.161178   -1.583930   -0.173849
  H      0.422554    1.379477    2.313653
  H     -2.484103    2.733887   -0.106082
  H     -2.090878    1.979492    2.431124
  H     -0.128477    2.714877   -0.508669

 Total Charge           Charge          ....    0
 Multiplicity           Mult            ....    1
 Number of Electrons    NEL             ....  160
 Basis Dimension        Dim             ....  825

ORBITAL ENERGIES
----------------

  NO   OCC          E(Eh)            E(eV)
   0   2.0000    -482.501729    -13129.5395
   1   2.0000     -62.215458     -1692.9687
   2   2.0000     -56.000219     -1523.8434
   3   2.0000     -55.998704     -1523.8022
   4   2.0000     -55.998574     -1523.7987
   5   2.0000     -19.150195      -521.1033
   6   2.0000     -19.139257      -520.8057
   7   2.0000     -19.125103      -520.4205
   8   2.0000     -19.120344      -520.2910
   9   2.0000     -19.110085      -520.0118
  10   2.0000     -19.085957      -519.3553
  11   2.0000     -10.281895      -279.7846
  12   2.0000     -10.264435      -279.3095
  13   2.0000     -10.221742      -278.1477
  14   2.0000     -10.218977      -278.0725
  15   2.0000     -10.210200      -277.8337
  16   2.0000     -10.190021      -277.2846
  17   2.0000     -10.184797      -277.1424
  18   2.0000     -10.165619      -276.6206
  19   2.0000     -10.153735      -276.2972
  20   2.0000      -8.561144      -232.9606
  21   2.0000      -6.378468      -173.5669
  22   2.0000      -6.373757      -173.4388
  23   2.0000      -6.373380      -173.4285
  24   2.0000      -3.173104       -86.3445
  25   2.0000      -2.502798       -68.1046
  26   2.0000      -2.501435       -68.0675
  27   2.0000      -2.501137       -68.0594
  28   2.0000      -2.497564       -67.9622
  29   2.0000      -2.497553       -67.9619
  30   2.0000      -1.750004       -47.6200
  31   2.0000      -1.740748       -47.3682
  32   2.0000      -1.739342       -47.3299
  33   2.0000      -1.134647       -30.8753
  34   2.0000      -1.108200       -30.1557
  35   2.0000      -1.105240       -30.0751
  36   2.0000      -1.102882       -30.0109
  37   2.0000      -1.091504       -29.7013
  38   2.0000      -1.041571       -28.3426
  39   2.0000      -0.871736       -23.7211
  40   2.0000      -0.760789       -20.7021
  41   2.0000      -0.717963       -19.5368
  42   2.0000      -0.691040       -18.8042
  43   2.0000      -0.689092       -18.7511
  44   2.0000      -0.602746       -16.4015
  45   2.0000      -0.587496       -15.9866
  46   2.0000      -0.569785       -15.5046
  47   2.0000      -0.554382       -15.0855
  48   2.0000      -0.547453       -14.8970
  49   2.0000      -0.545497       -14.8437
  50   2.0000      -0.540465       -14.7068
  51   2.0000      -0.511542       -13.9198
  52   2.0000      -0.504912       -13.7394
  53   2.0000      -0.496312       -13.5053
  54   2.0000      -0.485248       -13.2043
  55   2.0000      -0.464893       -12.6504
  56   2.0000      -0.453340       -12.3360
  57   2.0000      -0.449600       -12.2342
  58   2.0000      -0.448736       -12.2107
  59   2.0000      -0.440881       -11.9970
  60   2.0000      -0.439448       -11.9580
  61   2.0000      -0.431722       -11.7478
  62   2.0000      -0.429985       -11.7005
  63   2.0000      -0.428991       -11.6734
  64   2.0000      -0.421117       -11.4592
  65   2.0000      -0.418031       -11.3752
  66   2.0000      -0.415511       -11.3066
  67   2.0000      -0.394510       -10.7352
  68   2.0000      -0.382010       -10.3950
  69   2.0000      -0.375322       -10.2130
  70   2.0000      -0.332986        -9.0610
  71   2.0000      -0.328389        -8.9359
  72   2.0000      -0.322032        -8.7629
  73   2.0000      -0.302191        -8.2230
  74   2.0000      -0.285364        -7.7652
  75   2.0000      -0.270439        -7.3590
  76   2.0000      -0.258120        -7.0238
  77   2.0000      -0.243973        -6.6388
  78   2.0000      -0.222374        -6.0511
  79   2.0000      -0.218169        -5.9367
  80   0.0000      -0.097001        -2.6395
  81   0.0000      -0.055150        -1.5007
  82   0.0000      -0.054927        -1.4946
  83   0.0000      -0.045112        -1.2276
  84   0.0000      -0.037193        -1.0121

MULLIKEN ATOMIC CHARGES
-----------------------
   0 Re:   -0.330067
   1 C :    0.670930
   2 C :    0.550393
   3 C :    0.369387
   4 Br:   -0.593427
   5 O :   -0.415645
   6 O :   -0.331840
   7 O :   -0.375040
   8 C :   -0.629640
   9 C :    0.118961
  10 C :    1.504262
  11 C :    0.294617
  12 O :   -0.668801
  13 O :   -0.311538
  14 C :   -0.059036
  15 O :   -0.490976
  16 H :    0.437839
  17 C :    0.021550
  18 H :    0.050164
  19 H :    0.092169
  20 H :    0.083038
  21 H :   -0.011021
  22 H :   -0.029238
  23 H :   -0.060695
  24 H :    0.113652
Sum of atomic charges:   -0.0000000

LOEWDIN ATOMIC CHARGES
----------------------
   0 Re:    0.588752
   1 C :   -0.286960
   2 C :   -0.325337
   3 C :   -0.277122
   4 Br:    0.179545
   5 O :    0.106592
   6 O :    0.135428
   7 O :    0.134295
   8 C :    0.017704
   9 C :    0.026608
  10 C :   -0.088756
  11 C :   -0.487710
  12 O :    0.123287
  13 O :    0.053031
  14 C :   -0.151880
  15 O :    0.148043
  16 H :   -0.206063
  17 C :    0.194403
  18 H :    0.011895
  19 H :    0.012524
  20 H :    0.003828
  21 H :   -0.036251
  22 H :    0.069733
  23 H :    0.014870
  24 H :    0.039543

  Mayer bond orders larger than 0.100000
B(  0-Re,  1-C ) :   1.2593 B(  0-Re,  2-C ) :   1.5317 B(  0-Re,  3-C ) :   1.5448
B(  0-Re,  4-Br) :   0.2378 B(  0-Re,  5-O ) :   0.1663 B(  0-Re,  6-O ) :   0.1445
B(  0-Re,  7-O ) :   0.1453 B(  0-Re,  9-C ) :   0.4640 B(  0-Re, 14-C ) :   0.4022
B(  0-Re, 15-O ) :   0.4655 B(  1-C ,  2-C ) :  -0.1255 B(  1-C ,  6-O ) :   1.9910
B(  2-C ,  4-Br) :   0.1332 B(  2-C ,  7-O ) :   1.9296 B(  2-C ,  9-C ) :   0.1571
B(  3-C ,  5-O ) :   1.8430 B(  4-Br, 11-C ) :   0.1626 B(  4-Br, 16-H ) :  -0.1163
B(  8-C ,  9-C ) :   1.5562 B(  8-C , 10-C ) :   0.6837 B(  8-C , 13-O ) :   0.1400
B(  8-C , 14-C ) :   0.2394 B(  8-C , 23-H ) :   1.1944 B(  9-C , 10-C ) :   0.1013
B(  9-C , 14-C ) :   0.2311 B(  9-C , 21-H ) :   1.0476 B(  9-C , 23-H ) :  -0.1149
B( 10-C , 11-C ) :   0.2424 B( 10-C , 13-O ) :   0.1027 B( 10-C , 14-C ) :   0.9512
B( 10-C , 22-H ) :   0.7003 B( 11-C , 12-O ) :   1.2045 B( 11-C , 13-O ) :   0.7480
B( 11-C , 14-C ) :   0.5019 B( 12-O , 13-O ) :   0.1039 B( 12-O , 14-C ) :   0.1204
B( 13-O , 17-C ) :   0.8558 B( 14-C , 15-O ) :   0.5580 B( 14-C , 24-H ) :   0.9793
B( 15-O , 16-H ) :   0.8381 B( 15-O , 24-H ) :  -0.1172 B( 17-C , 18-H ) :   1.0353
B( 17-C , 19-H ) :   0.9554 B( 17-C , 20-H ) :   0.9619

Dispersion correction           -0.046543041
FINAL SINGLE POINT ENERGY     -3451.969864677537

DIPOLE MOMENT
-------------
                                X             Y             Z
Electronic contribution:    141.04217      -0.74913      -7.46683
Nuclear contribution   :   -143.25315       2.56406       7.67326
                        -----------------------------------------
Total Dipole Moment    :     -2.21098       1.81493       0.20644
                        -----------------------------------------
Magnitude (a.u.)       :      2.86793
Magnitude (Debye)      :      7.28970

Rotational constants in cm-1:     0.017495     0.008280     0.007326
Rotational constants in MHz :   524.496520   248.224980   219.630549

                             ****ORCA TERMINATED NORMALLY****
TOTAL RUN TIME: 0 days 0 hours 7 minutes 3 seconds 24 msec
