                         Program Version 4.2.0 -  RELEASE  -
|  1> #
|  2> # TMB20_C1 TPSSh-D3BJ/Def2-TZVPPD
|  3> #
|  4> ! tpssh d3bj def2-tzvppd def2/jk grid4 nofinalgrid
|  5>
|  6> *xyz 0 1
|  7> Re      -1.072665    0.212376   -0.034636
|  8> C       -1.072260   -0.271683    1.857255
|  9> C       -2.882577   -0.347239   -0.151918
| 10> C       -1.671800    1.974535    0.387813
| 11> Br      -0.106106   -2.222959   -0.227559
| 12> O       -2.042355    3.032773    0.649150
| 13> O       -1.092539   -0.543239    2.965184
| 14> O       -3.977345   -0.680746   -0.233754
| 15> C       -1.097144    1.301488   -2.052782
| 16> C       -0.757943    0.130940   -2.251371
| 17> C        3.116548    1.792974   -0.035452
| 18> C        3.822495    0.593532    0.034050
| 19> O        3.256440   -0.568022    0.077602
| 20> O        5.128051    0.619793    0.055969
| 21> C        1.730040    1.757413   -0.054388
| 22> O        1.074850    0.675289   -0.001074
| 23> H        2.259004   -0.423965    0.051981
| 24> C        5.826586   -0.629933    0.127198
| 25> H        6.879482   -0.365214    0.136783
| 26> H        5.557636   -1.164457    1.037079
| 27> H        5.594141   -1.245208   -0.740821
| 28> H       -0.446457   -0.764543   -2.749196
| 29> H        3.656243    2.725032   -0.072675
| 30> H       -1.374127    2.315189   -2.254725
| 31> H        1.177176    2.699572   -0.113184
| 32> *
| 33>
| 34> %maxcore 5000
| 35>
| 36> %pal
| 37> nprocs = 24
| 38> end
| 39>
| 40>
| 41>                          ****END OF INPUT****

CARTESIAN COORDINATES (ANGSTROEM)
---------------------------------
  Re    -1.072665    0.212376   -0.034636
  C     -1.072260   -0.271683    1.857255
  C     -2.882577   -0.347239   -0.151918
  C     -1.671800    1.974535    0.387813
  Br    -0.106106   -2.222959   -0.227559
  O     -2.042355    3.032773    0.649150
  O     -1.092539   -0.543239    2.965184
  O     -3.977345   -0.680746   -0.233754
  C     -1.097144    1.301488   -2.052782
  C     -0.757943    0.130940   -2.251371
  C      3.116548    1.792974   -0.035452
  C      3.822495    0.593532    0.034050
  O      3.256440   -0.568022    0.077602
  O      5.128051    0.619793    0.055969
  C      1.730040    1.757413   -0.054388
  O      1.074850    0.675289   -0.001074
  H      2.259004   -0.423965    0.051981
  C      5.826586   -0.629933    0.127198
  H      6.879482   -0.365214    0.136783
  H      5.557636   -1.164457    1.037079
  H      5.594141   -1.245208   -0.740821
  H     -0.446457   -0.764543   -2.749196
  H      3.656243    2.725032   -0.072675
  H     -1.374127    2.315189   -2.254725
  H      1.177176    2.699572   -0.113184

 Total Charge           Charge          ....    0
 Multiplicity           Mult            ....    1
 Number of Electrons    NEL             ....  160
 Basis Dimension        Dim             ....  825

ORBITAL ENERGIES
----------------

  NO   OCC          E(Eh)            E(eV)
   0   2.0000    -482.496536    -13129.3982
   1   2.0000     -62.210272     -1692.8276
   2   2.0000     -55.995254     -1523.7083
   3   2.0000     -55.993427     -1523.6586
   4   2.0000     -55.993243     -1523.6536
   5   2.0000     -19.151147      -521.1292
   6   2.0000     -19.134721      -520.6822
   7   2.0000     -19.122318      -520.3447
   8   2.0000     -19.114193      -520.1236
   9   2.0000     -19.104128      -519.8498
  10   2.0000     -19.097982      -519.6825
  11   2.0000     -10.291962      -280.0585
  12   2.0000     -10.225906      -278.2610
  13   2.0000     -10.217523      -278.0329
  14   2.0000     -10.216611      -278.0081
  15   2.0000     -10.205149      -277.6962
  16   2.0000     -10.203544      -277.6526
  17   2.0000     -10.155975      -276.3581
  18   2.0000     -10.146843      -276.1096
  19   2.0000     -10.141274      -275.9581
  20   2.0000      -8.555983      -232.8201
  21   2.0000      -6.373935      -173.4436
  22   2.0000      -6.368346      -173.2915
  23   2.0000      -6.367826      -173.2774
  24   2.0000      -3.168699       -86.2247
  25   2.0000      -2.498003       -67.9741
  26   2.0000      -2.496597       -67.9359
  27   2.0000      -2.496218       -67.9255
  28   2.0000      -2.491886       -67.8077
  29   2.0000      -2.491873       -67.8073
  30   2.0000      -1.740176       -47.3526
  31   2.0000      -1.738553       -47.3084
  32   2.0000      -1.735155       -47.2160
  33   2.0000      -1.155410       -31.4403
  34   2.0000      -1.105594       -30.0848
  35   2.0000      -1.096592       -29.8398
  36   2.0000      -1.086684       -29.5702
  37   2.0000      -1.082243       -29.4493
  38   2.0000      -1.052691       -28.6452
  39   2.0000      -0.810664       -22.0593
  40   2.0000      -0.779544       -21.2125
  41   2.0000      -0.746682       -20.3182
  42   2.0000      -0.685130       -18.6433
  43   2.0000      -0.646929       -17.6038
  44   2.0000      -0.639000       -17.3881
  45   2.0000      -0.578851       -15.7513
  46   2.0000      -0.566341       -15.4109
  47   2.0000      -0.562397       -15.3036
  48   2.0000      -0.543811       -14.7979
  49   2.0000      -0.541429       -14.7330
  50   2.0000      -0.524348       -14.2682
  51   2.0000      -0.518193       -14.1007
  52   2.0000      -0.508541       -13.8381
  53   2.0000      -0.499515       -13.5925
  54   2.0000      -0.474958       -12.9243
  55   2.0000      -0.457403       -12.4466
  56   2.0000      -0.453282       -12.3344
  57   2.0000      -0.448488       -12.2040
  58   2.0000      -0.443586       -12.0706
  59   2.0000      -0.442143       -12.0313
  60   2.0000      -0.441428       -12.0119
  61   2.0000      -0.435582       -11.8528
  62   2.0000      -0.430156       -11.7051
  63   2.0000      -0.425693       -11.5837
  64   2.0000      -0.417103       -11.3499
  65   2.0000      -0.414465       -11.2782
  66   2.0000      -0.412997       -11.2382
  67   2.0000      -0.404639       -11.0108
  68   2.0000      -0.386287       -10.5114
  69   2.0000      -0.355979        -9.6867
  70   2.0000      -0.336984        -9.1698
  71   2.0000      -0.330091        -8.9822
  72   2.0000      -0.312977        -8.5165
  73   2.0000      -0.283788        -7.7223
  74   2.0000      -0.272160        -7.4059
  75   2.0000      -0.267197        -7.2708
  76   2.0000      -0.259720        -7.0673
  77   2.0000      -0.222421        -6.0524
  78   2.0000      -0.220818        -6.0088
  79   2.0000      -0.212536        -5.7834
  80   0.0000      -0.094940        -2.5834
  81   0.0000      -0.068294        -1.8584
  82   0.0000      -0.040387        -1.0990
  83   0.0000      -0.023256        -0.6328
  84   0.0000      -0.020006        -0.5444

MULLIKEN ATOMIC CHARGES
-----------------------
   0 Re:   -0.063177
   1 C :    0.478384
   2 C :    0.795101
   3 C :    0.386025
   4 Br:   -0.683978
   5 O :   -0.431290
   6 O :   -0.314994
   7 O :   -0.391802
   8 C :   -0.021644
   9 C :    0.196686
  10 C :   -0.771677
  11 C :    0.990304
  12 O :   -0.546308
  13 O :   -0.344718
  14 C :    0.764342
  15 O :   -0.872854
  16 H :    0.434820
  17 C :    0.046212
  18 H :    0.042113
  19 H :    0.094406
  20 H :    0.094108
  21 H :    0.001951
  22 H :    0.052065
  23 H :   -0.031316
  24 H :    0.097242
Sum of atomic charges:   -0.0000000

LOEWDIN ATOMIC CHARGES
----------------------
   0 Re:    0.565776
   1 C :   -0.308589
   2 C :   -0.310711
   3 C :   -0.300617
   4 Br:    0.116963
   5 O :    0.108705
   6 O :    0.130882
   7 O :    0.118157
   8 C :    0.029174
   9 C :   -0.033050
  10 C :    0.118545
  11 C :   -0.346802
  12 O :    0.359621
  13 O :    0.068580
  14 C :   -0.110185
  15 O :   -0.158122
  16 H :   -0.213600
  17 C :    0.195920
  18 H :    0.013496
  19 H :    0.016307
  20 H :    0.016162
  21 H :   -0.074569
  22 H :    0.010820
  23 H :   -0.047266
  24 H :    0.034403

  Mayer bond orders larger than 0.100000
B(  0-Re,  1-C ) :   1.1311 B(  0-Re,  2-C ) :   1.4559 B(  0-Re,  3-C ) :   1.3736
B(  0-Re,  4-Br) :   0.2299 B(  0-Re,  5-O ) :   0.1373 B(  0-Re,  6-O ) :   0.1120
B(  0-Re,  7-O ) :   0.2061 B(  0-Re,  8-C ) :   0.7324 B(  0-Re,  9-C ) :   0.5746
B(  0-Re, 15-O ) :   0.2761 B(  1-C ,  2-C ) :  -0.1288 B(  1-C ,  4-Br) :   0.1143
B(  1-C ,  6-O ) :   1.9643 B(  2-C ,  7-O ) :   1.8788 B(  3-C ,  5-O ) :   1.8575
B(  8-C ,  9-C ) :   1.7827 B(  8-C , 23-H ) :   1.1523 B(  9-C , 15-O ) :  -0.1076
B(  9-C , 21-H ) :   1.0869 B(  9-C , 23-H ) :  -0.1355 B( 10-C , 11-C ) :   0.8006
B( 10-C , 14-C ) :   1.0846 B( 10-C , 15-O ) :   0.1183 B( 10-C , 22-H ) :   1.2350
B( 11-C , 12-O ) :   0.9179 B( 11-C , 13-O ) :   0.8936 B( 11-C , 14-C ) :   0.1110
B( 11-C , 15-O ) :   0.1590 B( 12-O , 16-H ) :   0.6826 B( 13-O , 17-C ) :   0.8718
B( 14-C , 15-O ) :   1.0239 B( 14-C , 22-H ) :  -0.1052 B( 14-C , 24-H ) :   0.9600
B( 17-C , 18-H ) :   1.0308 B( 17-C , 19-H ) :   0.9658 B( 17-C , 20-H ) :   0.9642

Dispersion correction           -0.041829694
FINAL SINGLE POINT ENERGY     -3451.992973745273

DIPOLE MOMENT
-------------
                                X             Y             Z
Electronic contribution:   -158.36706      14.20973      -3.99243
Nuclear contribution   :    161.40681     -12.70221       3.21078
                        -----------------------------------------
Total Dipole Moment    :      3.03976       1.50752      -0.78165
                        -----------------------------------------
Magnitude (a.u.)       :      3.48191
Magnitude (Debye)      :      8.85032

Rotational constants in cm-1:     0.015589     0.006706     0.005713
Rotational constants in MHz :   467.340547   201.035293   171.274519

                             ****ORCA TERMINATED NORMALLY****
TOTAL RUN TIME: 0 days 0 hours 6 minutes 7 seconds 69 msec
