                         Program Version 4.2.0 -  RELEASE  -
|  1> #
|  2> # TMB28_C1 TPSSh-D3BJ/Def2-TZVPPD
|  3> #
|  4> ! tpssh d3bj def2-tzvppd def2/jk grid4 nofinalgrid
|  5>
|  6> *xyz 0 1
|  7> C       -0.405710    1.676464   -0.132905
|  8> C       -0.911585    0.669613    0.356254
|  9> C       -0.058307    2.983711   -0.650101
| 10> H       -0.949750    3.612259   -0.580916
| 11> H        0.745323    3.420879   -0.056180
| 12> H        0.255303    2.923577   -1.693087
| 13> C       -1.922079   -0.256189    0.903797
| 14> O       -2.980737   -0.448274   -0.040247
| 15> C       -3.644467    0.620195   -0.535863
| 16> O       -3.419291    1.755394   -0.218963
| 17> C       -1.315036   -1.659397    1.187254
| 18> O       -0.292489   -1.714090    1.813533
| 19> C       -2.070337   -2.858032    0.718520
| 20> H       -2.050973   -2.878590   -0.373534
| 21> H       -1.593281   -3.749478    1.117849
| 22> H       -3.118661   -2.810283    1.017394
| 23> C       -4.664667    0.177679   -1.534856
| 24> H       -5.268795    1.028888   -1.835351
| 25> H       -4.153929   -0.239550   -2.404894
| 26> H       -5.293840   -0.608504   -1.117133
| 27> C       -2.442836    0.266886    2.244835
| 28> H       -3.205737   -0.415249    2.624458
| 29> H       -1.614369    0.303689    2.950542
| 30> H       -2.869838    1.259004    2.124200
| 31> Au       1.189623    0.069390   -0.174295
| 32> Cl       0.186320   -1.092349   -1.885264
| 33> Cl       3.146088   -1.001725   -0.550079
| 34> Cl       2.155158    1.282412    1.507095
| 35> *
| 36>
| 37> %maxcore 5000
| 38>
| 39> %pal
| 40> nprocs = 24
| 41> end
| 42>
| 43>
| 44>                          ****END OF INPUT****

CARTESIAN COORDINATES (ANGSTROEM)
---------------------------------
  C     -0.405710    1.676464   -0.132905
  C     -0.911585    0.669613    0.356254
  C     -0.058307    2.983711   -0.650101
  H     -0.949750    3.612259   -0.580916
  H      0.745323    3.420879   -0.056180
  H      0.255303    2.923577   -1.693087
  C     -1.922079   -0.256189    0.903797
  O     -2.980737   -0.448274   -0.040247
  C     -3.644467    0.620195   -0.535863
  O     -3.419291    1.755394   -0.218963
  C     -1.315036   -1.659397    1.187254
  O     -0.292489   -1.714090    1.813533
  C     -2.070337   -2.858032    0.718520
  H     -2.050973   -2.878590   -0.373534
  H     -1.593281   -3.749478    1.117849
  H     -3.118661   -2.810283    1.017394
  C     -4.664667    0.177679   -1.534856
  H     -5.268795    1.028888   -1.835351
  H     -4.153929   -0.239550   -2.404894
  H     -5.293840   -0.608504   -1.117133
  C     -2.442836    0.266886    2.244835
  H     -3.205737   -0.415249    2.624458
  H     -1.614369    0.303689    2.950542
  H     -2.869838    1.259004    2.124200
  Au     1.189623    0.069390   -0.174295
  Cl     0.186320   -1.092349   -1.885264
  Cl     3.146088   -1.001725   -0.550079
  Cl     2.155158    1.282412    1.507095

 Total Charge           Charge          ....    0
 Multiplicity           Mult            ....    1
 Number of Electrons    NEL             ....  160
 Basis Dimension        Dim             ....  869

ORBITAL ENERGIES
----------------

  NO   OCC          E(Eh)            E(eV)
   0   2.0000    -101.353367     -2757.9653
   1   2.0000    -101.349929     -2757.8718
   2   2.0000    -101.347717     -2757.8116
   3   2.0000     -19.134138      -520.6664
   4   2.0000     -19.075810      -519.0792
   5   2.0000     -19.072305      -518.9838
   6   2.0000     -10.270339      -279.4701
   7   2.0000     -10.249269      -278.8968
   8   2.0000     -10.234419      -278.4927
   9   2.0000     -10.202000      -277.6105
  10   2.0000     -10.192205      -277.3440
  11   2.0000     -10.169231      -276.7188
  12   2.0000     -10.147416      -276.1252
  13   2.0000     -10.146546      -276.1016
  14   2.0000     -10.137584      -275.8577
  15   2.0000      -9.354101      -254.5380
  16   2.0000      -9.350575      -254.4421
  17   2.0000      -9.348217      -254.3779
  18   2.0000      -7.101043      -193.2292
  19   2.0000      -7.097860      -193.1426
  20   2.0000      -7.095909      -193.0895
  21   2.0000      -7.093463      -193.0230
  22   2.0000      -7.092862      -193.0066
  23   2.0000      -7.089712      -192.9209
  24   2.0000      -7.089219      -192.9075
  25   2.0000      -7.087361      -192.8569
  26   2.0000      -7.086443      -192.8319
  27   2.0000      -4.219403      -114.8158
  28   2.0000      -2.414710       -65.7076
  29   2.0000      -2.411572       -65.6222
  30   2.0000      -2.388664       -64.9988
  31   2.0000      -1.123075       -30.5604
  32   2.0000      -1.061890       -28.8955
  33   2.0000      -1.035467       -28.1765
  34   2.0000      -0.856936       -23.3184
  35   2.0000      -0.817164       -22.2362
  36   2.0000      -0.777244       -21.1499
  37   2.0000      -0.760911       -20.7054
  38   2.0000      -0.760260       -20.6877
  39   2.0000      -0.757859       -20.6224
  40   2.0000      -0.756334       -20.5809
  41   2.0000      -0.740874       -20.1602
  42   2.0000      -0.683336       -18.5945
  43   2.0000      -0.613095       -16.6832
  44   2.0000      -0.583471       -15.8771
  45   2.0000      -0.511585       -13.9209
  46   2.0000      -0.509274       -13.8581
  47   2.0000      -0.501102       -13.6357
  48   2.0000      -0.497655       -13.5419
  49   2.0000      -0.480818       -13.0837
  50   2.0000      -0.474731       -12.9181
  51   2.0000      -0.466341       -12.6898
  52   2.0000      -0.458077       -12.4649
  53   2.0000      -0.448013       -12.1911
  54   2.0000      -0.443457       -12.0671
  55   2.0000      -0.437952       -11.9173
  56   2.0000      -0.435761       -11.8577
  57   2.0000      -0.427687       -11.6380
  58   2.0000      -0.424835       -11.5604
  59   2.0000      -0.421987       -11.4828
  60   2.0000      -0.418637       -11.3917
  61   2.0000      -0.407591       -11.0911
  62   2.0000      -0.404185       -10.9984
  63   2.0000      -0.394707       -10.7405
  64   2.0000      -0.390099       -10.6151
  65   2.0000      -0.380113       -10.3434
  66   2.0000      -0.375308       -10.2126
  67   2.0000      -0.344470        -9.3735
  68   2.0000      -0.339605        -9.2411
  69   2.0000      -0.335646        -9.1334
  70   2.0000      -0.330685        -8.9984
  71   2.0000      -0.306891        -8.3509
  72   2.0000      -0.297524        -8.0960
  73   2.0000      -0.292316        -7.9543
  74   2.0000      -0.283177        -7.7056
  75   2.0000      -0.272326        -7.4104
  76   2.0000      -0.269927        -7.3451
  77   2.0000      -0.266597        -7.2545
  78   2.0000      -0.263790        -7.1781
  79   2.0000      -0.258903        -7.0451
  80   0.0000      -0.148318        -4.0359
  81   0.0000      -0.074272        -2.0210
  82   0.0000      -0.066318        -1.8046
  83   0.0000      -0.041772        -1.1367
  84   0.0000      -0.036514        -0.9936

MULLIKEN ATOMIC CHARGES
-----------------------
   0 C :    2.166995
   1 C :   -1.875790
   2 C :   -0.454946
   3 H :    0.087863
   4 H :    0.068010
   5 H :    0.049673
   6 C :    2.424181
   7 O :   -0.437621
   8 C :    0.717439
   9 O :   -0.588943
  10 C :    0.070461
  11 O :   -0.638496
  12 C :   -0.100295
  13 H :    0.053153
  14 H :    0.018189
  15 H :    0.102385
  16 C :   -0.177756
  17 H :    0.019260
  18 H :    0.037503
  19 H :    0.073688
  20 C :   -0.792030
  21 H :    0.083288
  22 H :    0.142508
  23 H :    0.130023
  24 Au:    0.144121
  25 Cl:   -0.484049
  26 Cl:   -0.352656
  27 Cl:   -0.486156
Sum of atomic charges:   -0.0000000

LOEWDIN ATOMIC CHARGES
----------------------
   0 C :   -0.169357
   1 C :   -0.119036
   2 C :    0.154464
   3 H :    0.011419
   4 H :   -0.015719
   5 H :    0.006522
   6 C :   -0.361537
   7 O :    0.045229
   8 C :   -0.460489
   9 O :    0.132581
  10 C :   -0.363463
  11 O :    0.096165
  12 C :    0.227932
  13 H :   -0.002700
  14 H :    0.006388
  15 H :    0.003717
  16 C :    0.250255
  17 H :    0.001272
  18 H :    0.008230
  19 H :    0.002930
  20 C :    0.249836
  21 H :    0.015814
  22 H :    0.015770
  23 H :    0.000309
  24 Au:    0.309241
  25 Cl:    0.019645
  26 Cl:   -0.069532
  27 Cl:    0.004113

  Mayer bond orders larger than 0.100000
B(  0-C ,  1-C ) :  -1.1575 B(  0-C ,  2-C ) :   0.9639 B(  0-C ,  9-O ) :  -0.2285
B(  0-C , 10-C ) :  -0.2895 B(  0-C , 12-C ) :  -0.1296 B(  0-C , 24-Au) :  -0.2257
B(  0-C , 25-Cl) :  -0.7219 B(  0-C , 27-Cl) :   0.3444 B(  1-C ,  6-C ) :   1.0710
B(  1-C ,  7-O ) :   0.2216 B(  1-C , 10-C ) :   0.3556 B(  1-C , 11-O ) :   0.1411
B(  1-C , 12-C ) :   0.1227 B(  1-C , 20-C ) :   0.4602 B(  1-C , 24-Au) :   0.7718
B(  1-C , 25-Cl) :   0.2739 B(  1-C , 27-Cl) :  -0.7031 B(  2-C ,  3-H ) :   1.0091
B(  2-C ,  4-H ) :   0.8855 B(  2-C ,  5-H ) :   0.9763 B(  6-C ,  8-C ) :  -0.1848
B(  6-C ,  9-O ) :   0.2376 B(  6-C , 10-C ) :   0.2488 B(  6-C , 20-C ) :   0.5172
B(  6-C , 25-Cl) :   0.2872 B(  7-O ,  8-C ) :   1.0190 B(  7-O , 20-C ) :   0.1116
B(  8-C ,  9-O ) :   1.4809 B(  8-C , 16-C ) :   1.0826 B( 10-C , 11-O ) :   1.2474
B( 10-C , 12-C ) :   1.2349 B( 10-C , 24-Au) :  -0.2528 B( 11-O , 12-C ) :   0.1317
B( 11-O , 20-C ) :   0.1266 B( 12-C , 13-H ) :   0.8853 B( 12-C , 14-H ) :   1.0556
B( 12-C , 15-H ) :   0.8970 B( 16-C , 17-H ) :   1.0370 B( 16-C , 18-H ) :   0.9254
B( 16-C , 19-H ) :   0.9233 B( 20-C , 21-H ) :   1.0278 B( 20-C , 22-H ) :   0.9503
B( 20-C , 23-H ) :   0.9109 B( 24-Au, 25-Cl) :   0.9374 B( 24-Au, 26-Cl) :   0.7018
B( 24-Au, 27-Cl) :   0.8762 B( 25-Cl, 27-Cl) :   0.1586

Dispersion correction           -0.050899214
FINAL SINGLE POINT ENERGY     -2092.560566871901

DIPOLE MOMENT
-------------
                                X             Y             Z
Electronic contribution:    184.84762       8.35739     -26.26872
Nuclear contribution   :   -188.12551      -7.68230      26.09317
                        -----------------------------------------
Total Dipole Moment    :     -3.27789       0.67509      -0.17555
                        -----------------------------------------
Magnitude (a.u.)       :      3.35129
Magnitude (Debye)      :      8.51830

Rotational constants in cm-1:     0.016324     0.007365     0.006921
Rotational constants in MHz :   489.388468   220.811279   207.480820

                             ****ORCA TERMINATED NORMALLY****
TOTAL RUN TIME: 0 days 0 hours 8 minutes 55 seconds 453 msec
