                         Program Version 4.2.0 -  RELEASE  -
|  1> #
|  2> # TMB20_T1 TPSSh-D3BJ/Def2-TZVPPD
|  3> #
|  4> ! tpssh d3bj def2-tzvppd def2/jk grid4 nofinalgrid
|  5>
|  6> *xyz 0 1
|  7> Re       1.075850    0.159419    0.019780
|  8> C        2.196750   -0.403878   -1.423482
|  9> C        2.402994   -0.436307    1.215711
| 10> C        1.922458    1.855293   -0.011396
| 11> Br      -0.261613   -2.102343    0.064683
| 12> O        2.449833    2.881230   -0.022028
| 13> O        2.868443   -0.722069   -2.296753
| 14> O        3.210599   -0.792996    1.955405
| 15> C       -1.539667    1.495797    1.625423
| 16> C       -0.428781    0.920088    1.558456
| 17> C       -2.591644    1.677755   -0.408432
| 18> C       -3.343269    0.487162   -0.270226
| 19> O       -2.954237   -0.721219   -0.381568
| 20> O       -4.608112    0.658864    0.009021
| 21> C       -1.326616    1.715594   -1.019432
| 22> O       -0.664105    0.697605   -1.265770
| 23> H       -1.956019   -0.923705   -0.405218
| 24> C       -5.425994   -0.504251    0.214760
| 25> H       -6.403655   -0.115620    0.482117
| 26> H       -5.482311   -1.089893   -0.701194
| 27> H       -5.017526   -1.116193    1.017061
| 28> H        0.138084    0.692302    2.461523
| 29> H       -3.155110    2.594425   -0.305352
| 30> H       -2.375145    2.018826    2.037613
| 31> H       -0.897368    2.710605   -1.208716
| 32> *
| 33>
| 34> %maxcore 5000
| 35>
| 36> %pal
| 37> nprocs = 24
| 38> end
| 39>
| 40>
| 41>                          ****END OF INPUT****

CARTESIAN COORDINATES (ANGSTROEM)
---------------------------------
  Re     1.075850    0.159419    0.019780
  C      2.196750   -0.403878   -1.423482
  C      2.402994   -0.436307    1.215711
  C      1.922458    1.855293   -0.011396
  Br    -0.261613   -2.102343    0.064683
  O      2.449833    2.881230   -0.022028
  O      2.868443   -0.722069   -2.296753
  O      3.210599   -0.792996    1.955405
  C     -1.539667    1.495797    1.625423
  C     -0.428781    0.920088    1.558456
  C     -2.591644    1.677755   -0.408432
  C     -3.343269    0.487162   -0.270226
  O     -2.954237   -0.721219   -0.381568
  O     -4.608112    0.658864    0.009021
  C     -1.326616    1.715594   -1.019432
  O     -0.664105    0.697605   -1.265770
  H     -1.956019   -0.923705   -0.405218
  C     -5.425994   -0.504251    0.214760
  H     -6.403655   -0.115620    0.482117
  H     -5.482311   -1.089893   -0.701194
  H     -5.017526   -1.116193    1.017061
  H      0.138084    0.692302    2.461523
  H     -3.155110    2.594425   -0.305352
  H     -2.375145    2.018826    2.037613
  H     -0.897368    2.710605   -1.208716

 Total Charge           Charge          ....    0
 Multiplicity           Mult            ....    1
 Number of Electrons    NEL             ....  160
 Basis Dimension        Dim             ....  825

ORBITAL ENERGIES
----------------

  NO   OCC          E(Eh)            E(eV)
   0   2.0000    -482.504336    -13129.6105
   1   2.0000     -62.218233     -1693.0442
   2   2.0000     -56.002693     -1523.9107
   3   2.0000     -56.001775     -1523.8858
   4   2.0000     -56.001281     -1523.8723
   5   2.0000     -19.168986      -521.6146
   6   2.0000     -19.150990      -521.1249
   7   2.0000     -19.099782      -519.7315
   8   2.0000     -19.094057      -519.5757
   9   2.0000     -19.091585      -519.5084
  10   2.0000     -19.087076      -519.3857
  11   2.0000     -10.316866      -280.7362
  12   2.0000     -10.236963      -278.5619
  13   2.0000     -10.217027      -278.0194
  14   2.0000     -10.198259      -277.5087
  15   2.0000     -10.195273      -277.4275
  16   2.0000     -10.193485      -277.3788
  17   2.0000     -10.187366      -277.2123
  18   2.0000     -10.169589      -276.7286
  19   2.0000     -10.141752      -275.9711
  20   2.0000      -8.564038      -233.0393
  21   2.0000      -6.380480      -173.6217
  22   2.0000      -6.377661      -173.5450
  23   2.0000      -6.376169      -173.5044
  24   2.0000      -3.152253       -85.7772
  25   2.0000      -2.505039       -68.1656
  26   2.0000      -2.504534       -68.1518
  27   2.0000      -2.503304       -68.1184
  28   2.0000      -2.501130       -68.0592
  29   2.0000      -2.501055       -68.0572
  30   2.0000      -1.726179       -46.9717
  31   2.0000      -1.720644       -46.8211
  32   2.0000      -1.719820       -46.7987
  33   2.0000      -1.173472       -31.9318
  34   2.0000      -1.090315       -29.6690
  35   2.0000      -1.082057       -29.4443
  36   2.0000      -1.075379       -29.2625
  37   2.0000      -1.073313       -29.2063
  38   2.0000      -1.060209       -28.8498
  39   2.0000      -0.830540       -22.6001
  40   2.0000      -0.782194       -21.2846
  41   2.0000      -0.755449       -20.5568
  42   2.0000      -0.700780       -19.0692
  43   2.0000      -0.666849       -18.1459
  44   2.0000      -0.644312       -17.5326
  45   2.0000      -0.591128       -16.0854
  46   2.0000      -0.581976       -15.8364
  47   2.0000      -0.554576       -15.0908
  48   2.0000      -0.535610       -14.5747
  49   2.0000      -0.530442       -14.4341
  50   2.0000      -0.525209       -14.2917
  51   2.0000      -0.519901       -14.1472
  52   2.0000      -0.515509       -14.0277
  53   2.0000      -0.492710       -13.4073
  54   2.0000      -0.472682       -12.8623
  55   2.0000      -0.469536       -12.7767
  56   2.0000      -0.456149       -12.4124
  57   2.0000      -0.443975       -12.0812
  58   2.0000      -0.433046       -11.7838
  59   2.0000      -0.429127       -11.6771
  60   2.0000      -0.426299       -11.6002
  61   2.0000      -0.421780       -11.4772
  62   2.0000      -0.418221       -11.3804
  63   2.0000      -0.413395       -11.2491
  64   2.0000      -0.406979       -11.0745
  65   2.0000      -0.403359       -10.9760
  66   2.0000      -0.402686       -10.9576
  67   2.0000      -0.400052       -10.8860
  68   2.0000      -0.397574       -10.8186
  69   2.0000      -0.371600       -10.1117
  70   2.0000      -0.334428        -9.1003
  71   2.0000      -0.324611        -8.8331
  72   2.0000      -0.307371        -8.3640
  73   2.0000      -0.286193        -7.7877
  74   2.0000      -0.280343        -7.6285
  75   2.0000      -0.261060        -7.1038
  76   2.0000      -0.256757        -6.9867
  77   2.0000      -0.220582        -6.0023
  78   2.0000      -0.215266        -5.8577
  79   2.0000      -0.208827        -5.6825
  80   0.0000      -0.113416        -3.0862
  81   0.0000      -0.104378        -2.8403
  82   0.0000      -0.044530        -1.2117
  83   0.0000      -0.036966        -1.0059
  84   0.0000      -0.025512        -0.6942

MULLIKEN ATOMIC CHARGES
-----------------------
   0 Re:   -0.163504
   1 C :    0.731131
   2 C :    0.490932
   3 C :    0.301507
   4 Br:   -0.663258
   5 O :   -0.418112
   6 O :   -0.374002
   7 O :   -0.404174
   8 C :   -0.529519
   9 C :    0.738979
  10 C :   -0.379561
  11 C :    1.164784
  12 O :   -0.442825
  13 O :   -0.356142
  14 C :    0.477164
  15 O :   -0.757309
  16 H :    0.307445
  17 C :    0.021594
  18 H :    0.047911
  19 H :    0.090865
  20 H :    0.100150
  21 H :   -0.063788
  22 H :    0.091102
  23 H :    0.009429
  24 H :   -0.020801
Sum of atomic charges:   -0.0000000

LOEWDIN ATOMIC CHARGES
----------------------
   0 Re:    0.560852
   1 C :   -0.298545
   2 C :   -0.351414
   3 C :   -0.296281
   4 Br:    0.240001
   5 O :    0.090233
   6 O :    0.114915
   7 O :    0.097268
   8 C :    0.196395
   9 C :   -0.065192
  10 C :    0.045818
  11 C :   -0.356670
  12 O :    0.318872
  13 O :    0.068085
  14 C :   -0.194854
  15 O :   -0.128007
  16 H :   -0.306206
  17 C :    0.208174
  18 H :    0.015000
  19 H :    0.018455
  20 H :    0.018942
  21 H :   -0.033803
  22 H :    0.025297
  23 H :   -0.035232
  24 H :    0.047897

  Mayer bond orders larger than 0.100000
B(  0-Re,  1-C ) :   1.3815 B(  0-Re,  2-C ) :   1.5523 B(  0-Re,  3-C ) :   1.5699
B(  0-Re,  4-Br) :   0.2696 B(  0-Re,  5-O ) :   0.1499 B(  0-Re,  6-O ) :   0.1654
B(  0-Re,  7-O ) :   0.1700 B(  0-Re,  9-C ) :   0.6109 B(  0-Re, 15-O ) :   0.2927
B(  1-C ,  2-C ) :  -0.1161 B(  1-C ,  6-O ) :   1.9187 B(  1-C ,  8-C ) :   0.1835
B(  1-C ,  9-C ) :  -0.1639 B(  2-C ,  3-C ) :  -0.1144 B(  2-C ,  4-Br) :   0.1461
B(  2-C ,  7-O ) :   1.8577 B(  3-C ,  5-O ) :   1.8572 B(  4-Br, 16-H ) :   0.1010
B(  8-C ,  9-C ) :   1.8990 B(  8-C , 10-C ) :   0.1424 B(  8-C , 11-C ) :   0.1653
B(  8-C , 14-C ) :   0.1573 B(  8-C , 21-H ) :   0.2065 B(  8-C , 23-H ) :   1.2655
B(  9-C , 21-H ) :   0.8103 B(  9-C , 23-H ) :  -0.2320 B( 10-C , 11-C ) :   0.8658
B( 10-C , 14-C ) :   1.2804 B( 10-C , 15-O ) :   0.1163 B( 10-C , 22-H ) :   1.1319
B( 11-C , 12-O ) :   0.8506 B( 11-C , 13-O ) :   0.7540 B( 12-O , 16-H ) :   0.7712
B( 13-O , 17-C ) :   0.9009 B( 14-C , 15-O ) :   1.1410 B( 14-C , 24-H ) :   1.0176
B( 17-C , 18-H ) :   1.0319 B( 17-C , 19-H ) :   0.9617 B( 17-C , 20-H ) :   0.9625

Dispersion correction           -0.045443232
FINAL SINGLE POINT ENERGY     -3451.939177858604

DIPOLE MOMENT
-------------
                                X             Y             Z
Electronic contribution:    156.29297       7.16152       1.54032
Nuclear contribution   :   -160.68759      -5.62073      -0.99353
                        -----------------------------------------
Total Dipole Moment    :     -4.39463       1.54079       0.54679
                        -----------------------------------------
Magnitude (a.u.)       :      4.68890
Magnitude (Debye)      :     11.91823

Rotational constants in cm-1:     0.016566     0.007303     0.006214
Rotational constants in MHz :   496.645586   218.925333   186.291690

                             ****ORCA TERMINATED NORMALLY****
TOTAL RUN TIME: 0 days 0 hours 6 minutes 28 seconds 613 msec
