                         Program Version 4.2.0 -  RELEASE  -
|  1> #
|  2> # TMB31_T1 TPSSh-D3BJ/Def2-TZVPPD
|  3> #
|  4> ! tpssh d3bj def2-tzvppd def2/jk grid4 nofinalgrid
|  5>
|  6> *xyz 1 1
|  7> Ir       0.050361    0.056236   -0.150076
|  8> C        0.978842   -1.302743   -1.517387
|  9> C       -1.864665    1.028637    0.563211
| 10> C       -1.426558    0.128925    1.555248
| 11> C       -1.389999   -1.187568    0.972706
| 12> C       -1.852948   -1.076424   -0.368776
| 13> C       -2.115280    0.291316   -0.640524
| 14> H        0.395138   -1.326753   -2.435403
| 15> H        2.003015   -1.039631   -1.784042
| 16> H        0.978935   -2.299217   -1.075482
| 17> H       -1.949414   -1.889112   -1.072248
| 18> H       -2.488115    0.695321   -1.568578
| 19> H       -1.982151    2.094988    0.682898
| 20> H       -1.179131    0.379256    2.575311
| 21> H       -1.144965   -2.105263    1.484015
| 22> C        0.981659    2.033847   -0.552795
| 23> H        0.609290    0.819803   -1.428069
| 24> H        0.362656    2.677374   -1.174650
| 25> H        1.003724    2.445002    0.454509
| 26> H        1.994491    2.026607   -0.953376
| 27> P        1.998129   -0.331589    0.938590
| 28> H        2.205383    0.285042    2.190624
| 29> H        2.302734   -1.672090    1.247762
| 30> H        3.172367    0.056392    0.263634
| 31> *
| 32>
| 33> %maxcore 5000
| 34>
| 35> %pal
| 36> nprocs = 24
| 37> end
| 38>
| 39>
| 40>                          ****END OF INPUT****

CARTESIAN COORDINATES (ANGSTROEM)
---------------------------------
  Ir     0.050361    0.056236   -0.150076
  C      0.978842   -1.302743   -1.517387
  C     -1.864665    1.028637    0.563211
  C     -1.426558    0.128925    1.555248
  C     -1.389999   -1.187568    0.972706
  C     -1.852948   -1.076424   -0.368776
  C     -2.115280    0.291316   -0.640524
  H      0.395138   -1.326753   -2.435403
  H      2.003015   -1.039631   -1.784042
  H      0.978935   -2.299217   -1.075482
  H     -1.949414   -1.889112   -1.072248
  H     -2.488115    0.695321   -1.568578
  H     -1.982151    2.094988    0.682898
  H     -1.179131    0.379256    2.575311
  H     -1.144965   -2.105263    1.484015
  C      0.981659    2.033847   -0.552795
  H      0.609290    0.819803   -1.428069
  H      0.362656    2.677374   -1.174650
  H      1.003724    2.445002    0.454509
  H      1.994491    2.026607   -0.953376
  P      1.998129   -0.331589    0.938590
  H      2.205383    0.285042    2.190624
  H      2.302734   -1.672090    1.247762
  H      3.172367    0.056392    0.263634

 Total Charge           Charge          ....    1
 Multiplicity           Mult            ....    1
 Number of Electrons    NEL             ....   88
 Basis Dimension        Dim             ....  621

ORBITAL ENERGIES
----------------

  NO   OCC          E(Eh)            E(eV)
   0   2.0000     -77.123030     -2098.6243
   1   2.0000     -10.303698      -280.3779
   2   2.0000     -10.302120      -280.3349
   3   2.0000     -10.301336      -280.3136
   4   2.0000     -10.300253      -280.2841
   5   2.0000     -10.298845      -280.2458
   6   2.0000     -10.284678      -279.8603
   7   2.0000     -10.252060      -278.9727
   8   2.0000      -6.678619      -181.7345
   9   2.0000      -4.827566      -131.3648
  10   2.0000      -4.827477      -131.3623
  11   2.0000      -4.825140      -131.2987
  12   2.0000      -3.836209      -104.3886
  13   2.0000      -2.197851       -59.8066
  14   2.0000      -2.183581       -59.4183
  15   2.0000      -2.176236       -59.2184
  16   2.0000      -1.046817       -28.4853
  17   2.0000      -0.875560       -23.8252
  18   2.0000      -0.870677       -23.6923
  19   2.0000      -0.841219       -22.8907
  20   2.0000      -0.816560       -22.2197
  21   2.0000      -0.795969       -21.6594
  22   2.0000      -0.701806       -19.0971
  23   2.0000      -0.700784       -19.0693
  24   2.0000      -0.688893       -18.7457
  25   2.0000      -0.608296       -16.5526
  26   2.0000      -0.585231       -15.9250
  27   2.0000      -0.576941       -15.6994
  28   2.0000      -0.574433       -15.6311
  29   2.0000      -0.566045       -15.4029
  30   2.0000      -0.559284       -15.2189
  31   2.0000      -0.539407       -14.6780
  32   2.0000      -0.537766       -14.6334
  33   2.0000      -0.536147       -14.5893
  34   2.0000      -0.524989       -14.2857
  35   2.0000      -0.522784       -14.2257
  36   2.0000      -0.515409       -14.0250
  37   2.0000      -0.507785       -13.8175
  38   2.0000      -0.481698       -13.1077
  39   2.0000      -0.447524       -12.1777
  40   2.0000      -0.433060       -11.7841
  41   2.0000      -0.410714       -11.1761
  42   2.0000      -0.403907       -10.9909
  43   2.0000      -0.385443       -10.4884
  44   0.0000      -0.202507        -5.5105
  45   0.0000      -0.182562        -4.9678
  46   0.0000      -0.151882        -4.1329
  47   0.0000      -0.142948        -3.8898
  48   0.0000      -0.141829        -3.8594

MULLIKEN ATOMIC CHARGES
-----------------------
   0 Ir:    0.234648
   1 C :   -0.611019
   2 C :    0.034370
   3 C :    0.162296
   4 C :    0.375506
   5 C :   -0.067157
   6 C :    0.279616
   7 H :    0.157031
   8 H :    0.220391
   9 H :    0.171577
  10 H :   -0.039364
  11 H :   -0.106206
  12 H :   -0.032099
  13 H :   -0.058214
  14 H :   -0.047637
  15 C :   -0.449767
  16 H :    0.054873
  17 H :    0.106310
  18 H :    0.186738
  19 H :    0.194067
  20 P :   -0.009542
  21 H :    0.074350
  22 H :    0.085306
  23 H :    0.083926
Sum of atomic charges:    1.0000000

LOEWDIN ATOMIC CHARGES
----------------------
   0 Ir:    1.042794
   1 C :    0.008019
   2 C :   -0.049430
   3 C :   -0.061483
   4 C :   -0.077870
   5 C :   -0.058887
   6 C :   -0.046044
   7 H :   -0.075173
   8 H :   -0.090139
   9 H :   -0.081276
  10 H :    0.026195
  11 H :    0.021588
  12 H :    0.023950
  13 H :    0.017003
  14 H :    0.017050
  15 C :    0.090608
  16 H :   -0.102841
  17 H :   -0.050592
  18 H :   -0.069185
  19 H :   -0.062266
  20 P :    0.925981
  21 H :   -0.122716
  22 H :   -0.115023
  23 H :   -0.110262

  Mayer bond orders larger than 0.100000
B(  0-Ir,  1-C ) :   0.6638 B(  0-Ir,  2-C ) :   0.4191 B(  0-Ir,  3-C ) :   0.4459
B(  0-Ir,  4-C ) :   0.4885 B(  0-Ir,  5-C ) :   0.4609 B(  0-Ir,  6-C ) :   0.4487
B(  0-Ir, 15-C ) :   0.5143 B(  0-Ir, 16-H ) :   0.5592 B(  0-Ir, 20-P ) :   0.9254
B(  1-C ,  5-C ) :   0.1329 B(  1-C ,  7-H ) :   0.9767 B(  1-C ,  8-H ) :   0.9287
B(  1-C ,  9-H ) :   0.9787 B(  2-C ,  3-C ) :   1.1391 B(  2-C ,  4-C ) :  -0.1502
B(  2-C ,  6-C ) :   0.9640 B(  2-C , 12-H ) :   1.0585 B(  2-C , 15-C ) :   0.1361
B(  3-C ,  4-C ) :   0.8901 B(  3-C ,  5-C ) :  -0.1097 B(  3-C ,  6-C ) :  -0.1580
B(  3-C , 13-H ) :   1.0717 B(  4-C ,  5-C ) :   0.9825 B(  4-C ,  6-C ) :  -0.1835
B(  4-C , 14-H ) :   0.9848 B(  5-C ,  6-C ) :   1.0909 B(  5-C , 10-H ) :   1.0580
B(  6-C , 11-H ) :   0.9915 B( 15-C , 16-H ) :   0.3474 B( 15-C , 17-H ) :   0.9890
B( 15-C , 18-H ) :   0.9389 B( 15-C , 19-H ) :   0.9303 B( 20-P , 21-H ) :   0.9396
B( 20-P , 22-H ) :   0.9343 B( 20-P , 23-H ) :   0.9492

Dispersion correction           -0.037556372
FINAL SINGLE POINT ENERGY      -721.456319551397

DIPOLE MOMENT
-------------
                                X             Y             Z
Electronic contribution:      4.75541       6.82977     -17.57339
Nuclear contribution   :     -4.43915      -6.73459      18.18954
                        -----------------------------------------
Total Dipole Moment    :      0.31626       0.09518       0.61615
                        -----------------------------------------
Magnitude (a.u.)       :      0.69909
Magnitude (Debye)      :      1.77694

Rotational constants in cm-1:     0.054508     0.031967     0.031168
Rotational constants in MHz :  1634.105298   958.356108   934.407674

                             ****ORCA TERMINATED NORMALLY****
TOTAL RUN TIME: 0 days 0 hours 3 minutes 20 seconds 712 msec
