                         Program Version 4.2.0 -  RELEASE  -
|  1> #
|  2> # TMB31_C1 TPSSh-D3BJ/Def2-TZVPPD
|  3> #
|  4> ! tpssh d3bj def2-tzvppd def2/jk grid4 nofinalgrid
|  5>
|  6> *xyz 1 1
|  7> Ir      -0.040708    0.096324    0.064455
|  8> C       -0.971708    0.418734    1.931461
|  9> C        1.819460    0.364204   -1.190947
| 10> C        1.490903   -0.994938   -1.162590
| 11> C        1.450197   -1.406167    0.225985
| 12> C        1.875844   -0.290195    1.023097
| 13> C        2.052625    0.814608    0.164170
| 14> H       -0.394638    1.150210    2.498372
| 15> H       -1.993156    0.794195    1.837094
| 16> H       -1.008781   -0.505981    2.508304
| 17> H        1.977900   -0.288415    2.097324
| 18> H        2.352296    1.808383    0.458691
| 19> H        1.885000    0.981073   -2.074563
| 20> H        1.275763   -1.618283   -2.016436
| 21> H        1.275639   -2.406893    0.589421
| 22> C       -1.335861    2.101294   -0.927849
| 23> H       -0.822201    1.778454    0.045587
| 24> H       -0.969200    3.125001   -0.997930
| 25> H       -1.110952    1.579089   -1.850904
| 26> H       -2.401764    2.084149   -0.716661
| 27> P       -1.870306   -1.156932   -0.405763
| 28> H       -1.625569   -2.441008   -0.924735
| 29> H       -2.747711   -1.466666    0.650785
| 30> H       -2.792266   -0.681495   -1.360892
| 31> *
| 32>
| 33> %maxcore 5000
| 34>
| 35> %pal
| 36> nprocs = 24
| 37> end
| 38>
| 39>
| 40>                          ****END OF INPUT****

CARTESIAN COORDINATES (ANGSTROEM)
---------------------------------
  Ir    -0.040708    0.096324    0.064455
  C     -0.971708    0.418734    1.931461
  C      1.819460    0.364204   -1.190947
  C      1.490903   -0.994938   -1.162590
  C      1.450197   -1.406167    0.225985
  C      1.875844   -0.290195    1.023097
  C      2.052625    0.814608    0.164170
  H     -0.394638    1.150210    2.498372
  H     -1.993156    0.794195    1.837094
  H     -1.008781   -0.505981    2.508304
  H      1.977900   -0.288415    2.097324
  H      2.352296    1.808383    0.458691
  H      1.885000    0.981073   -2.074563
  H      1.275763   -1.618283   -2.016436
  H      1.275639   -2.406893    0.589421
  C     -1.335861    2.101294   -0.927849
  H     -0.822201    1.778454    0.045587
  H     -0.969200    3.125001   -0.997930
  H     -1.110952    1.579089   -1.850904
  H     -2.401764    2.084149   -0.716661
  P     -1.870306   -1.156932   -0.405763
  H     -1.625569   -2.441008   -0.924735
  H     -2.747711   -1.466666    0.650785
  H     -2.792266   -0.681495   -1.360892

 Total Charge           Charge          ....    1
 Multiplicity           Mult            ....    1
 Number of Electrons    NEL             ....   88
 Basis Dimension        Dim             ....  621

ORBITAL ENERGIES
----------------

  NO   OCC          E(Eh)            E(eV)
   0   2.0000     -77.114198     -2098.3840
   1   2.0000     -10.308542      -280.5097
   2   2.0000     -10.307127      -280.4712
   3   2.0000     -10.302702      -280.3508
   4   2.0000     -10.301585      -280.3204
   5   2.0000     -10.299433      -280.2618
   6   2.0000     -10.278510      -279.6925
   7   2.0000     -10.234938      -278.5068
   8   2.0000      -6.670281      -181.5076
   9   2.0000      -4.819338      -131.1409
  10   2.0000      -4.819081      -131.1339
  11   2.0000      -4.816642      -131.0675
  12   2.0000      -3.824927      -104.0816
  13   2.0000      -2.190768       -59.6138
  14   2.0000      -2.172523       -59.1174
  15   2.0000      -2.162008       -58.8312
  16   2.0000      -1.047895       -28.5147
  17   2.0000      -0.879483       -23.9319
  18   2.0000      -0.871147       -23.7051
  19   2.0000      -0.857971       -23.3466
  20   2.0000      -0.811712       -22.0878
  21   2.0000      -0.787181       -21.4203
  22   2.0000      -0.703946       -19.1553
  23   2.0000      -0.701953       -19.1011
  24   2.0000      -0.690508       -18.7897
  25   2.0000      -0.600324       -16.3356
  26   2.0000      -0.582326       -15.8459
  27   2.0000      -0.572427       -15.5765
  28   2.0000      -0.568516       -15.4701
  29   2.0000      -0.565124       -15.3778
  30   2.0000      -0.558256       -15.1909
  31   2.0000      -0.547319       -14.8933
  32   2.0000      -0.539394       -14.6777
  33   2.0000      -0.538807       -14.6617
  34   2.0000      -0.538035       -14.6407
  35   2.0000      -0.515204       -14.0194
  36   2.0000      -0.509745       -13.8709
  37   2.0000      -0.503992       -13.7143
  38   2.0000      -0.475163       -12.9298
  39   2.0000      -0.448492       -12.2041
  40   2.0000      -0.432009       -11.7556
  41   2.0000      -0.405019       -11.0211
  42   2.0000      -0.391156       -10.6439
  43   2.0000      -0.372616       -10.1394
  44   0.0000      -0.231195        -6.2911
  45   0.0000      -0.177656        -4.8343
  46   0.0000      -0.139734        -3.8024
  47   0.0000      -0.136430        -3.7125
  48   0.0000      -0.132682        -3.6105

MULLIKEN ATOMIC CHARGES
-----------------------
   0 Ir:    0.171234
   1 C :   -0.646390
   2 C :    0.079406
   3 C :    0.062176
   4 C :    0.503330
   5 C :   -0.160973
   6 C :    0.243936
   7 H :    0.163636
   8 H :    0.220948
   9 H :    0.163300
  10 H :   -0.072155
  11 H :   -0.088826
  12 H :   -0.013185
  13 H :   -0.032065
  14 H :   -0.038936
  15 C :   -0.241369
  16 H :    0.085255
  17 H :    0.013513
  18 H :    0.185722
  19 H :    0.111713
  20 P :    0.083593
  21 H :    0.069053
  22 H :    0.071395
  23 H :    0.065691
Sum of atomic charges:    1.0000000

LOEWDIN ATOMIC CHARGES
----------------------
   0 Ir:    0.945932
   1 C :   -0.017171
   2 C :   -0.047051
   3 C :   -0.058849
   4 C :   -0.095249
   5 C :   -0.054828
   6 C :   -0.046174
   7 H :   -0.080072
   8 H :   -0.093438
   9 H :   -0.085038
  10 H :    0.027689
  11 H :    0.021054
  12 H :    0.021352
  13 H :    0.015544
  14 H :    0.017805
  15 C :    0.261757
  16 H :   -0.150223
  17 H :   -0.019064
  18 H :   -0.059661
  19 H :   -0.030464
  20 P :    0.916589
  21 H :   -0.133554
  22 H :   -0.123758
  23 H :   -0.133129

  Mayer bond orders larger than 0.100000
B(  0-Ir,  1-C ) :   0.6535 B(  0-Ir,  2-C ) :   0.4666 B(  0-Ir,  3-C ) :   0.4241
B(  0-Ir,  4-C ) :   0.5494 B(  0-Ir,  5-C ) :   0.5933 B(  0-Ir,  6-C ) :   0.4318
B(  0-Ir, 15-C ) :   0.2653 B(  0-Ir, 16-H ) :   0.1520 B(  0-Ir, 20-P ) :   0.9943
B(  1-C ,  5-C ) :   0.1520 B(  1-C ,  7-H ) :   0.9744 B(  1-C ,  8-H ) :   0.9322
B(  1-C ,  9-H ) :   0.9855 B(  2-C ,  3-C ) :   1.1570 B(  2-C ,  4-C ) :  -0.1524
B(  2-C ,  6-C ) :   0.8995 B(  2-C , 12-H ) :   1.0538 B(  3-C ,  4-C ) :   0.9079
B(  3-C ,  6-C ) :  -0.1689 B(  3-C , 13-H ) :   1.0998 B(  4-C ,  5-C ) :   0.8620
B(  4-C ,  6-C ) :  -0.1757 B(  4-C , 14-H ) :   0.9454 B(  5-C ,  6-C ) :   1.1359
B(  5-C , 10-H ) :   1.0562 B(  6-C , 11-H ) :   1.0081 B( 15-C , 16-H ) :   0.8964
B( 15-C , 17-H ) :   0.9481 B( 15-C , 18-H ) :   0.9305 B( 15-C , 19-H ) :   0.9495
B( 16-H , 17-H ) :   0.1120 B( 20-P , 21-H ) :   0.9347 B( 20-P , 22-H ) :   0.9314
B( 20-P , 23-H ) :   0.9322

Dispersion correction           -0.036576145
FINAL SINGLE POINT ENERGY      -721.471530998787

DIPOLE MOMENT
-------------
                                X             Y             Z
Electronic contribution:     -2.89446      10.05327       7.31902
Nuclear contribution   :      2.66689     -10.24599      -8.00272
                        -----------------------------------------
Total Dipole Moment    :     -0.22758      -0.19272      -0.68370
                        -----------------------------------------
Magnitude (a.u.)       :      0.74591
Magnitude (Debye)      :      1.89594

Rotational constants in cm-1:     0.050543     0.032436     0.029954
Rotational constants in MHz :  1515.232111   972.406510   898.012536

                             ****ORCA TERMINATED NORMALLY****
TOTAL RUN TIME: 0 days 0 hours 3 minutes 43 seconds 716 msec
