                         Program Version 4.2.0 -  RELEASE  -
|  1> #
|  2> # TMD08_V TPSSh-D3BJ/Def2-TZVPPD
|  3> #
|  4> ! tpssh d3bj def2-tzvppd def2/jk grid4 nofinalgrid
|  5>
|  6> *xyz 0 4
|  7> V        0.000000    0.000000    0.000000
|  8> *
|  9>
| 10> %maxcore 5000
| 11>
| 12> %pal
| 13> nprocs = 24
| 14> end
| 15>
| 16>
| 17>                          ****END OF INPUT****

CARTESIAN COORDINATES (ANGSTROEM)
---------------------------------
  V      0.000000    0.000000    0.000000

 Total Charge           Charge          ....    0
 Multiplicity           Mult            ....    4
 Number of Electrons    NEL             ....   23
 Basis Dimension        Dim             ....   67

ORBITAL ENERGIES
----------------
                 SPIN UP ORBITALS
  NO   OCC          E(Eh)            E(eV)
   0   1.0000    -196.673336     -5351.7536
   1   1.0000     -22.122215      -601.9761
   2   1.0000     -18.603120      -506.2166
   3   1.0000     -18.602169      -506.1908
   4   1.0000     -18.598600      -506.0936
   5   1.0000      -2.634706       -71.6940
   6   1.0000      -1.674005       -45.5520
   7   1.0000      -1.670628       -45.4601
   8   1.0000      -1.668390       -45.3992
   9   1.0000      -0.237612        -6.4658
  10   1.0000      -0.233686        -6.3589
  11   1.0000      -0.229206        -6.2370
  12   1.0000      -0.182694        -4.9713
  13   0.0000      -0.129386        -3.5208
  14   0.0000      -0.119938        -3.2637
  15   0.0000      -0.048173        -1.3109
  16   0.0000      -0.044314        -1.2059
  17   0.0000      -0.033822        -0.9203

                 SPIN DOWN ORBITALS
  NO   OCC          E(Eh)            E(eV)
   0   1.0000    -196.673091     -5351.7469
   1   1.0000     -22.085996      -600.9905
   2   1.0000     -18.573209      -505.4027
   3   1.0000     -18.570774      -505.3365
   4   1.0000     -18.568972      -505.2874
   5   1.0000      -2.523777       -68.6755
   6   1.0000      -1.560474       -42.4627
   7   1.0000      -1.554469       -42.2993
   8   1.0000      -1.548526       -42.1375
   9   1.0000      -0.156641        -4.2624
  10   0.0000      -0.087324        -2.3762
  11   0.0000      -0.077603        -2.1117
  12   0.0000      -0.057404        -1.5620
  13   0.0000      -0.052364        -1.4249
  14   0.0000      -0.050725        -1.3803

MULLIKEN ATOMIC CHARGES AND SPIN POPULATIONS
--------------------------------------------
   0 V :   -0.000000    3.000000
Sum of atomic charges         :   -0.0000000

LOEWDIN ATOMIC CHARGES AND SPIN POPULATIONS
-------------------------------------------
   0 V :   -0.000000    3.000000

Dispersion correction            0.000000000
FINAL SINGLE POINT ENERGY      -943.900245675260

DIPOLE MOMENT
-------------
                                X             Y             Z
Electronic contribution:      0.00000      -0.00000      -0.00000
Nuclear contribution   :      0.00000       0.00000       0.00000
                        -----------------------------------------
Total Dipole Moment    :      0.00000      -0.00000      -0.00000
                        -----------------------------------------
Magnitude (a.u.)       :      0.00000
Magnitude (Debye)      :      0.00000

Rotational constants in cm-1:     0.000000     0.000000     0.000000
Rotational constants in MHz :     0.000000     0.000000     0.000000

                             ****ORCA TERMINATED NORMALLY****
TOTAL RUN TIME: 0 days 0 hours 0 minutes 7 seconds 231 msec
