                         Program Version 4.2.0 -  RELEASE  -
|  1> #
|  2> # TMD07_Ti TPSSh-D3BJ/Def2-TZVPPD
|  3> #
|  4> ! tpssh d3bj def2-tzvppd def2/jk grid4 nofinalgrid
|  5>
|  6> *xyz 0 3
|  7> Ti       0.000000    0.000000    0.000000
|  8> *
|  9>
| 10> %maxcore 5000
| 11>
| 12> %pal
| 13> nprocs = 24
| 14> end
| 15>
| 16>
| 17>                          ****END OF INPUT****

CARTESIAN COORDINATES (ANGSTROEM)
---------------------------------
  Ti     0.000000    0.000000    0.000000

 Total Charge           Charge          ....    0
 Multiplicity           Mult            ....    3
 Number of Electrons    NEL             ....   22
 Basis Dimension        Dim             ....   67

ORBITAL ENERGIES
----------------
                 SPIN UP ORBITALS
  NO   OCC          E(Eh)            E(eV)
   0   1.0000    -178.692027     -4862.4573
   1   1.0000     -19.783412      -538.3340
   2   1.0000     -16.475069      -448.3094
   3   1.0000     -16.474901      -448.3048
   4   1.0000     -16.474785      -448.3017
   5   1.0000      -2.377274       -64.6889
   6   1.0000      -1.494602       -40.6702
   7   1.0000      -1.494345       -40.6632
   8   1.0000      -1.493222       -40.6326
   9   1.0000      -0.224785        -6.1167
  10   1.0000      -0.224232        -6.1017
  11   1.0000      -0.176850        -4.8123
  12   0.0000      -0.115908        -3.1540
  13   0.0000      -0.115179        -3.1342
  14   0.0000      -0.113947        -3.1007
  15   0.0000      -0.051215        -1.3936
  16   0.0000      -0.049763        -1.3541

                 SPIN DOWN ORBITALS
  NO   OCC          E(Eh)            E(eV)
   0   1.0000    -178.691917     -4862.4543
   1   1.0000     -19.762817      -537.7736
   2   1.0000     -16.458307      -447.8533
   3   1.0000     -16.457642      -447.8352
   4   1.0000     -16.457252      -447.8246
   5   1.0000      -2.310225       -62.8644
   6   1.0000      -1.424065       -38.7508
   7   1.0000      -1.423670       -38.7400
   8   1.0000      -1.423424       -38.7333
   9   1.0000      -0.158452        -4.3117
  10   0.0000      -0.095513        -2.5990
  11   0.0000      -0.092820        -2.5257
  12   0.0000      -0.091711        -2.4956
  13   0.0000      -0.066867        -1.8195
  14   0.0000      -0.066484        -1.8091

MULLIKEN ATOMIC CHARGES AND SPIN POPULATIONS
--------------------------------------------
   0 Ti:   -0.000000    2.000000
Sum of atomic charges         :   -0.0000000

LOEWDIN ATOMIC CHARGES AND SPIN POPULATIONS
-------------------------------------------
   0 Ti:   -0.000000    2.000000

Dispersion correction            0.000000000
FINAL SINGLE POINT ENERGY      -849.357421386890

DIPOLE MOMENT
-------------
                                X             Y             Z
Electronic contribution:      0.00000       0.00000       0.00000
Nuclear contribution   :      0.00000       0.00000       0.00000
                        -----------------------------------------
Total Dipole Moment    :      0.00000       0.00000       0.00000
                        -----------------------------------------
Magnitude (a.u.)       :      0.00000
Magnitude (Debye)      :      0.00000

Rotational constants in cm-1:     0.000000     0.000000     0.000000
Rotational constants in MHz :     0.000000     0.000000     0.000000

                             ****ORCA TERMINATED NORMALLY****
TOTAL RUN TIME: 0 days 0 hours 0 minutes 4 seconds 825 msec
