                         Program Version 4.2.0 -  RELEASE  -
|  1> #
|  2> # TMD06_Br TPSSh-D3BJ/Def2-TZVPPD
|  3> #
|  4> ! tpssh d3bj def2-tzvppd def2/jk grid4 nofinalgrid
|  5>
|  6> *xyz 0 2
|  7> Br       0.000000    0.000000    0.000000
|  8> *
|  9>
| 10> %maxcore 5000
| 11>
| 12> %pal
| 13> nprocs = 24
| 14> end
| 15>
| 16>
| 17>                          ****END OF INPUT****

CARTESIAN COORDINATES (ANGSTROEM)
---------------------------------
  Br     0.000000    0.000000    0.000000

 Total Charge           Charge          ....    0
 Multiplicity           Mult            ....    2
 Number of Electrons    NEL             ....   35
 Basis Dimension        Dim             ....   57

ORBITAL ENERGIES
----------------
                 SPIN UP ORBITALS
  NO   OCC          E(Eh)            E(eV)
   0   1.0000    -482.594977    -13132.0769
   1   1.0000     -62.308111     -1695.4899
   2   1.0000     -56.097522     -1526.4912
   3   1.0000     -56.089798     -1526.2810
   4   1.0000     -56.089798     -1526.2810
   5   1.0000      -8.655216      -235.5204
   6   1.0000      -6.484009      -176.4389
   7   1.0000      -6.462277      -175.8475
   8   1.0000      -6.462277      -175.8475
   9   1.0000      -2.605221       -70.8917
  10   1.0000      -2.599822       -70.7448
  11   1.0000      -2.599822       -70.7448
  12   1.0000      -2.583586       -70.3030
  13   1.0000      -2.583586       -70.3030
  14   1.0000      -0.774088       -21.0640
  15   1.0000      -0.362160        -9.8549
  16   1.0000      -0.311817        -8.4850
  17   1.0000      -0.311817        -8.4850
  18   0.0000       0.031303         0.8518
  19   0.0000       0.036609         0.9962
  20   0.0000       0.042119         1.1461
  21   0.0000       0.042121         1.1462
  22   0.0000       0.112656         3.0655

                 SPIN DOWN ORBITALS
  NO   OCC          E(Eh)            E(eV)
   0   1.0000    -482.592586    -13132.0119
   1   1.0000     -62.307291     -1695.4676
   2   1.0000     -56.092890     -1526.3651
   3   1.0000     -56.089009     -1526.2595
   4   1.0000     -56.089009     -1526.2595
   5   1.0000      -8.651792      -235.4272
   6   1.0000      -6.474757      -176.1871
   7   1.0000      -6.460782      -175.8068
   8   1.0000      -6.460782      -175.8068
   9   1.0000      -2.596926       -70.6659
  10   1.0000      -2.593624       -70.5761
  11   1.0000      -2.593624       -70.5761
  12   1.0000      -2.582666       -70.2779
  13   1.0000      -2.582666       -70.2779
  14   1.0000      -0.729315       -19.8457
  15   1.0000      -0.297914        -8.1066
  16   1.0000      -0.297913        -8.1066
  17   0.0000      -0.244438        -6.6515
  18   0.0000       0.039107         1.0642
  19   0.0000       0.043350         1.1796
  20   0.0000       0.043352         1.1797
  21   0.0000       0.046177         1.2565

MULLIKEN ATOMIC CHARGES AND SPIN POPULATIONS
--------------------------------------------
   0 Br:   -0.000000    1.000000
Sum of atomic charges         :   -0.0000000

LOEWDIN ATOMIC CHARGES AND SPIN POPULATIONS
-------------------------------------------
   0 Br:   -0.000000    1.000000

Dispersion correction            0.000000000
FINAL SINGLE POINT ENERGY     -2574.024458911961

DIPOLE MOMENT
-------------
                                X             Y             Z
Electronic contribution:     -0.00000      -0.00000      -0.00000
Nuclear contribution   :      0.00000       0.00000       0.00000
                        -----------------------------------------
Total Dipole Moment    :     -0.00000      -0.00000      -0.00000
                        -----------------------------------------
Magnitude (a.u.)       :      0.00000
Magnitude (Debye)      :      0.00000

Rotational constants in cm-1:     0.000000     0.000000     0.000000
Rotational constants in MHz :     0.000000     0.000000     0.000000

                             ****ORCA TERMINATED NORMALLY****
TOTAL RUN TIME: 0 days 0 hours 0 minutes 2 seconds 843 msec
