                         Program Version 4.2.0 -  RELEASE  -
|  1> #
|  2> # TMD02_O TPSSh-D3BJ/Def2-TZVPPD
|  3> #
|  4> ! tpssh d3bj def2-tzvppd def2/jk grid4 nofinalgrid
|  5>
|  6> *xyz 0 3
|  7> O        0.000000    0.000000    0.000000
|  8> *
|  9>
| 10> %maxcore 5000
| 11>
| 12> %pal
| 13> nprocs = 24
| 14> end
| 15>
| 16>
| 17>                          ****END OF INPUT****

CARTESIAN COORDINATES (ANGSTROEM)
---------------------------------
  O      0.000000    0.000000    0.000000

 Total Charge           Charge          ....    0
 Multiplicity           Mult            ....    3
 Number of Electrons    NEL             ....    8
 Basis Dimension        Dim             ....   40

ORBITAL ENERGIES
----------------
                 SPIN UP ORBITALS
  NO   OCC          E(Eh)            E(eV)
   0   1.0000     -19.202686      -522.5316
   1   1.0000      -0.997855       -27.1530
   2   1.0000      -0.438479       -11.9316
   3   1.0000      -0.438479       -11.9316
   4   1.0000      -0.356623        -9.7042
   5   0.0000       0.050113         1.3636
   6   0.0000       0.077769         2.1162
   7   0.0000       0.077770         2.1162
   8   0.0000       0.084037         2.2868
   9   0.0000       0.347099         9.4450

                 SPIN DOWN ORBITALS
  NO   OCC          E(Eh)            E(eV)
   0   1.0000     -19.146716      -521.0086
   1   1.0000      -0.835530       -22.7359
   2   1.0000      -0.316794        -8.6204
   3   0.0000      -0.185660        -5.0521
   4   0.0000      -0.185659        -5.0520
   5   0.0000       0.068758         1.8710
   6   0.0000       0.087173         2.3721
   7   0.0000       0.101021         2.7489

MULLIKEN ATOMIC CHARGES AND SPIN POPULATIONS
--------------------------------------------
   0 O :   -0.000000    2.000000
Sum of atomic charges         :   -0.0000000

LOEWDIN ATOMIC CHARGES AND SPIN POPULATIONS
-------------------------------------------
   0 O :   -0.000000    2.000000

Dispersion correction            0.000000000
FINAL SINGLE POINT ENERGY       -75.100092848425

DIPOLE MOMENT
-------------
                                X             Y             Z
Electronic contribution:     -0.00000       0.00000      -0.00000
Nuclear contribution   :      0.00000       0.00000       0.00000
                        -----------------------------------------
Total Dipole Moment    :     -0.00000       0.00000      -0.00000
                        -----------------------------------------
Magnitude (a.u.)       :      0.00000
Magnitude (Debye)      :      0.00000

Rotational constants in cm-1:     0.000000     0.000000     0.000000
Rotational constants in MHz :     0.000000     0.000000     0.000000

                             ****ORCA TERMINATED NORMALLY****
TOTAL RUN TIME: 0 days 0 hours 0 minutes 2 seconds 536 msec
