                         Program Version 4.2.0 -  RELEASE  -
|  1> #
|  2> # TMD09_Cr TPSSh-D3BJ/Def2-TZVPPD
|  3> #
|  4> ! tpssh d3bj def2-tzvppd def2/jk grid4 nofinalgrid
|  5>
|  6> *xyz 0 7
|  7> Cr       0.000000    0.000000    0.000000
|  8> *
|  9>
| 10> %maxcore 5000
| 11>
| 12> %pal
| 13> nprocs = 24
| 14> end
| 15>
| 16>
| 17>                          ****END OF INPUT****

CARTESIAN COORDINATES (ANGSTROEM)
---------------------------------
  Cr     0.000000    0.000000    0.000000

 Total Charge           Charge          ....    0
 Multiplicity           Mult            ....    7
 Number of Electrons    NEL             ....   24
 Basis Dimension        Dim             ....   67

ORBITAL ENERGIES
----------------
                 SPIN UP ORBITALS
  NO   OCC          E(Eh)            E(eV)
   0   1.0000    -215.413327     -5861.6946
   1   1.0000     -24.465687      -665.7452
   2   1.0000     -20.731826      -564.1417
   3   1.0000     -20.731826      -564.1417
   4   1.0000     -20.731826      -564.1417
   5   1.0000      -2.806272       -76.3625
   6   1.0000      -1.764234       -48.0072
   7   1.0000      -1.764234       -48.0072
   8   1.0000      -1.764234       -48.0072
   9   1.0000      -0.166655        -4.5349
  10   1.0000      -0.161863        -4.4045
  11   1.0000      -0.161863        -4.4045
  12   1.0000      -0.161863        -4.4045
  13   1.0000      -0.161863        -4.4045
  14   1.0000      -0.161863        -4.4045
  15   0.0000      -0.033156        -0.9022
  16   0.0000      -0.033156        -0.9022
  17   0.0000      -0.033156        -0.9022
  18   0.0000       0.069113         1.8807
  19   0.0000       0.069113         1.8807

                 SPIN DOWN ORBITALS
  NO   OCC          E(Eh)            E(eV)
   0   1.0000    -215.411944     -5861.6570
   1   1.0000     -24.406439      -664.1330
   2   1.0000     -20.682207      -562.7915
   3   1.0000     -20.682207      -562.7915
   4   1.0000     -20.682207      -562.7915
   5   1.0000      -2.622336       -71.3574
   6   1.0000      -1.571499       -42.7627
   7   1.0000      -1.571499       -42.7627
   8   1.0000      -1.571499       -42.7627
   9   0.0000      -0.042570        -1.1584
  10   0.0000       0.038274         1.0415
  11   0.0000       0.038274         1.0415
  12   0.0000       0.038274         1.0415
  13   0.0000       0.050249         1.3673

MULLIKEN ATOMIC CHARGES AND SPIN POPULATIONS
--------------------------------------------
   0 Cr:    0.000000    6.000000
Sum of atomic charges         :    0.0000000

LOEWDIN ATOMIC CHARGES AND SPIN POPULATIONS
-------------------------------------------
   0 Cr:    0.000000    6.000000

Dispersion correction            0.000000000
FINAL SINGLE POINT ENERGY     -1044.446180489664

DIPOLE MOMENT
-------------
                                X             Y             Z
Electronic contribution:     -0.00000      -0.00000       0.00000
Nuclear contribution   :      0.00000       0.00000       0.00000
                        -----------------------------------------
Total Dipole Moment    :     -0.00000      -0.00000       0.00000
                        -----------------------------------------
Magnitude (a.u.)       :      0.00000
Magnitude (Debye)      :      0.00000

Rotational constants in cm-1:     0.000000     0.000000     0.000000
Rotational constants in MHz :     0.000000     0.000000     0.000000

                             ****ORCA TERMINATED NORMALLY****
TOTAL RUN TIME: 0 days 0 hours 0 minutes 2 seconds 846 msec
