                         Program Version 4.2.0 -  RELEASE  -
|  1> #
|  2> # TMD05_Cl TPSSh-D3BJ/Def2-TZVPPD
|  3> #
|  4> ! tpssh d3bj def2-tzvppd def2/jk grid4 nofinalgrid
|  5>
|  6> *xyz 0 2
|  7> Cl       0.000000    0.000000    0.000000
|  8> *
|  9>
| 10> %maxcore 5000
| 11>
| 12> %pal
| 13> nprocs = 24
| 14> end
| 15>
| 16>
| 17>                          ****END OF INPUT****

CARTESIAN COORDINATES (ANGSTROEM)
---------------------------------
  Cl     0.000000    0.000000    0.000000

 Total Charge           Charge          ....    0
 Multiplicity           Mult            ....    2
 Number of Electrons    NEL             ....   17
 Basis Dimension        Dim             ....   51

ORBITAL ENERGIES
----------------
                 SPIN UP ORBITALS
  NO   OCC          E(Eh)            E(eV)
   0   1.0000    -101.428017     -2759.9967
   1   1.0000      -9.425684      -256.4859
   2   1.0000      -7.184723      -195.5063
   3   1.0000      -7.161476      -194.8737
   4   1.0000      -7.161476      -194.8737
   5   1.0000      -0.826783       -22.4979
   6   1.0000      -0.398458       -10.8426
   7   1.0000      -0.339533        -9.2392
   8   1.0000      -0.339533        -9.2392
   9   0.0000       0.045635         1.2418
  10   0.0000       0.048417         1.3175
  11   0.0000       0.054473         1.4823
  12   0.0000       0.054474         1.4823
  13   0.0000       0.150723         4.1014

                 SPIN DOWN ORBITALS
  NO   OCC          E(Eh)            E(eV)
   0   1.0000    -101.420892     -2759.8028
   1   1.0000      -9.419930      -256.3293
   2   1.0000      -7.164138      -194.9461
   3   1.0000      -7.157960      -194.7780
   4   1.0000      -7.157960      -194.7780
   5   1.0000      -0.772250       -21.0140
   6   1.0000      -0.324818        -8.8387
   7   1.0000      -0.324818        -8.8387
   8   0.0000      -0.256695        -6.9850
   9   0.0000       0.053830         1.4648
  10   0.0000       0.055739         1.5167
  11   0.0000       0.055739         1.5167
  12   0.0000       0.059768         1.6264

MULLIKEN ATOMIC CHARGES AND SPIN POPULATIONS
--------------------------------------------
   0 Cl:   -0.000000    1.000000
Sum of atomic charges         :   -0.0000000

LOEWDIN ATOMIC CHARGES AND SPIN POPULATIONS
-------------------------------------------
   0 Cl:   -0.000000    1.000000

Dispersion correction            0.000000000
FINAL SINGLE POINT ENERGY      -460.164985470856

DIPOLE MOMENT
-------------
                                X             Y             Z
Electronic contribution:      0.00000       0.00000       0.00000
Nuclear contribution   :      0.00000       0.00000       0.00000
                        -----------------------------------------
Total Dipole Moment    :      0.00000       0.00000       0.00000
                        -----------------------------------------
Magnitude (a.u.)       :      0.00000
Magnitude (Debye)      :      0.00000

Rotational constants in cm-1:     0.000000     0.000000     0.000000
Rotational constants in MHz :     0.000000     0.000000     0.000000

                             ****ORCA TERMINATED NORMALLY****
TOTAL RUN TIME: 0 days 0 hours 0 minutes 2 seconds 612 msec
