                         Program Version 4.2.0 -  RELEASE  -
|  1> #
|  2> # TMD04_S TPSSh-D3BJ/Def2-TZVPPD
|  3> #
|  4> ! tpssh d3bj def2-tzvppd def2/jk grid4 nofinalgrid
|  5>
|  6> *xyz 0 3
|  7> S        0.000000    0.000000    0.000000
|  8> *
|  9>
| 10> %maxcore 5000
| 11>
| 12> %pal
| 13> nprocs = 24
| 14> end
| 15>
| 16>
| 17>                          ****END OF INPUT****

CARTESIAN COORDINATES (ANGSTROEM)
---------------------------------
  S      0.000000    0.000000    0.000000

 Total Charge           Charge          ....    0
 Multiplicity           Mult            ....    3
 Number of Electrons    NEL             ....   16
 Basis Dimension        Dim             ....   51

ORBITAL ENERGIES
----------------
                 SPIN UP ORBITALS
  NO   OCC          E(Eh)            E(eV)
   0   1.0000     -88.775038     -2415.6916
   1   1.0000      -7.917205      -215.4381
   2   1.0000      -5.872915      -159.8101
   3   1.0000      -5.872915      -159.8101
   4   1.0000      -5.853353      -159.2778
   5   1.0000      -0.707782       -19.2597
   6   1.0000      -0.325516        -8.8577
   7   1.0000      -0.325516        -8.8577
   8   1.0000      -0.273280        -7.4363
   9   0.0000       0.028822         0.7843
  10   0.0000       0.039817         1.0835
  11   0.0000       0.039819         1.0835
  12   0.0000       0.045627         1.2416
  13   0.0000       0.113743         3.0951

                 SPIN DOWN ORBITALS
  NO   OCC          E(Eh)            E(eV)
   0   1.0000     -88.763388     -2415.3746
   1   1.0000      -7.907072      -215.1624
   2   1.0000      -5.852454      -159.2534
   3   1.0000      -5.852454      -159.2534
   4   1.0000      -5.847247      -159.1117
   5   1.0000      -0.608889       -16.5687
   6   1.0000      -0.250247        -6.8096
   7   0.0000      -0.182800        -4.9742
   8   0.0000      -0.182800        -4.9742
   9   0.0000       0.045785         1.2459
  10   0.0000       0.048554         1.3212
  11   0.0000       0.056207         1.5295

MULLIKEN ATOMIC CHARGES AND SPIN POPULATIONS
--------------------------------------------
   0 S :    0.000000    2.000000
Sum of atomic charges         :    0.0000000

LOEWDIN ATOMIC CHARGES AND SPIN POPULATIONS
-------------------------------------------
   0 S :    0.000000    2.000000

Dispersion correction            0.000000000
FINAL SINGLE POINT ENERGY      -398.130939269001

DIPOLE MOMENT
-------------
                                X             Y             Z
Electronic contribution:     -0.00000       0.00000      -0.00000
Nuclear contribution   :      0.00000       0.00000       0.00000
                        -----------------------------------------
Total Dipole Moment    :     -0.00000       0.00000      -0.00000
                        -----------------------------------------
Magnitude (a.u.)       :      0.00000
Magnitude (Debye)      :      0.00000

Rotational constants in cm-1:     0.000000     0.000000     0.000000
Rotational constants in MHz :     0.000000     0.000000     0.000000

                             ****ORCA TERMINATED NORMALLY****
TOTAL RUN TIME: 0 days 0 hours 0 minutes 2 seconds 602 msec
