                         Program Version 4.2.0 -  RELEASE  -
|  1> #
|  2> # TMD03_F TPSSh-D3BJ/Def2-TZVPPD
|  3> #
|  4> ! tpssh d3bj def2-tzvppd def2/jk grid4 nofinalgrid
|  5>
|  6> *xyz 0 2
|  7> F        0.000000    0.000000    0.000000
|  8> *
|  9>
| 10> %maxcore 5000
| 11>
| 12> %pal
| 13> nprocs = 24
| 14> end
| 15>
| 16>
| 17>                          ****END OF INPUT****

CARTESIAN COORDINATES (ANGSTROEM)
---------------------------------
  F      0.000000    0.000000    0.000000

 Total Charge           Charge          ....    0
 Multiplicity           Mult            ....    2
 Number of Electrons    NEL             ....    9
 Basis Dimension        Dim             ....   40

ORBITAL ENERGIES
----------------
                 SPIN UP ORBITALS
  NO   OCC          E(Eh)            E(eV)
   0   1.0000     -24.705564      -672.2726
   1   1.0000      -1.207009       -32.8444
   2   1.0000      -0.539506       -14.6807
   3   1.0000      -0.445452       -12.1214
   4   1.0000      -0.445452       -12.1214
   5   0.0000       0.077482         2.1084
   6   0.0000       0.094276         2.5654
   7   0.0000       0.100692         2.7400
   8   0.0000       0.100692         2.7400
   9   0.0000       0.457596        12.4518

                 SPIN DOWN ORBITALS
  NO   OCC          E(Eh)            E(eV)
   0   1.0000     -24.673034      -671.3874
   1   1.0000      -1.116496       -30.3814
   2   1.0000      -0.417476       -11.3601
   3   1.0000      -0.417475       -11.3601
   4   0.0000      -0.286583        -7.7983
   5   0.0000       0.086129         2.3437
   6   0.0000       0.101994         2.7754
   7   0.0000       0.101995         2.7754
   8   0.0000       0.110646         3.0108

MULLIKEN ATOMIC CHARGES AND SPIN POPULATIONS
--------------------------------------------
   0 F :   -0.000000    1.000000
Sum of atomic charges         :   -0.0000000

LOEWDIN ATOMIC CHARGES AND SPIN POPULATIONS
-------------------------------------------
   0 F :   -0.000000    1.000000

Dispersion correction            0.000000000
FINAL SINGLE POINT ENERGY       -99.766858195933

DIPOLE MOMENT
-------------
                                X             Y             Z
Electronic contribution:     -0.00000      -0.00000      -0.00000
Nuclear contribution   :      0.00000       0.00000       0.00000
                        -----------------------------------------
Total Dipole Moment    :     -0.00000      -0.00000      -0.00000
                        -----------------------------------------
Magnitude (a.u.)       :      0.00000
Magnitude (Debye)      :      0.00000

Rotational constants in cm-1:     0.000000     0.000000     0.000000
Rotational constants in MHz :     0.000000     0.000000     0.000000

                             ****ORCA TERMINATED NORMALLY****
TOTAL RUN TIME: 0 days 0 hours 0 minutes 2 seconds 392 msec
