                         Program Version 4.2.0 -  RELEASE  -
|  1> #
|  2> # TMD13_Cu TPSSh-D3BJ/Def2-TZVPPD
|  3> #
|  4> ! tpssh d3bj def2-tzvppd def2/jk grid4 nofinalgrid
|  5>
|  6> *xyz 0 2
|  7> Cu       0.000000    0.000000    0.000000
|  8> *
|  9>
| 10> %maxcore 5000
| 11>
| 12> %pal
| 13> nprocs = 24
| 14> end
| 15>
| 16>
| 17>                          ****END OF INPUT****

CARTESIAN COORDINATES (ANGSTROEM)
---------------------------------
  Cu     0.000000    0.000000    0.000000

 Total Charge           Charge          ....    0
 Multiplicity           Mult            ....    2
 Number of Electrons    NEL             ....   29
 Basis Dimension        Dim             ....   67

ORBITAL ENERGIES
----------------
                 SPIN UP ORBITALS
  NO   OCC          E(Eh)            E(eV)
   0   1.0000    -322.740590     -8782.2179
   1   1.0000     -38.609283     -1050.6120
   2   1.0000     -33.786354      -919.3734
   3   1.0000     -33.786354      -919.3734
   4   1.0000     -33.786354      -919.3734
   5   1.0000      -4.212465      -114.6270
   6   1.0000      -2.704232       -73.5859
   7   1.0000      -2.704232       -73.5859
   8   1.0000      -2.704232       -73.5859
   9   1.0000      -0.219466        -5.9720
  10   1.0000      -0.219466        -5.9720
  11   1.0000      -0.219466        -5.9720
  12   1.0000      -0.219466        -5.9720
  13   1.0000      -0.219466        -5.9720
  14   1.0000      -0.185347        -5.0436
  15   0.0000      -0.022297        -0.6067
  16   0.0000      -0.022297        -0.6067
  17   0.0000      -0.022297        -0.6067
  18   0.0000       0.084078         2.2879
  19   0.0000       0.117038         3.1848

                 SPIN DOWN ORBITALS
  NO   OCC          E(Eh)            E(eV)
   0   1.0000    -322.739513     -8782.1886
   1   1.0000     -38.610631     -1050.6487
   2   1.0000     -33.787569      -919.4065
   3   1.0000     -33.787569      -919.4065
   4   1.0000     -33.787569      -919.4065
   5   1.0000      -4.214470      -114.6816
   6   1.0000      -2.706518       -73.6481
   7   1.0000      -2.706518       -73.6481
   8   1.0000      -2.706518       -73.6481
   9   1.0000      -0.214833        -5.8459
  10   1.0000      -0.214833        -5.8459
  11   1.0000      -0.214833        -5.8459
  12   1.0000      -0.214833        -5.8459
  13   1.0000      -0.214833        -5.8459
  14   0.0000      -0.116486        -3.1697
  15   0.0000       0.007888         0.2146
  16   0.0000       0.007888         0.2146
  17   0.0000       0.007888         0.2146
  18   0.0000       0.110950         3.0191

MULLIKEN ATOMIC CHARGES AND SPIN POPULATIONS
--------------------------------------------
   0 Cu:   -0.000000    1.000000
Sum of atomic charges         :   -0.0000000

LOEWDIN ATOMIC CHARGES AND SPIN POPULATIONS
-------------------------------------------
   0 Cu:   -0.000000    1.000000

Dispersion correction            0.000000000
FINAL SINGLE POINT ENERGY     -1640.491407711869

DIPOLE MOMENT
-------------
                                X             Y             Z
Electronic contribution:     -0.00000      -0.00000      -0.00000
Nuclear contribution   :      0.00000       0.00000       0.00000
                        -----------------------------------------
Total Dipole Moment    :     -0.00000      -0.00000      -0.00000
                        -----------------------------------------
Magnitude (a.u.)       :      0.00000
Magnitude (Debye)      :      0.00000

Rotational constants in cm-1:     0.000000     0.000000     0.000000
Rotational constants in MHz :     0.000000     0.000000     0.000000

                             ****ORCA TERMINATED NORMALLY****
TOTAL RUN TIME: 0 days 0 hours 0 minutes 2 seconds 901 msec
