                         Program Version 4.2.0 -  RELEASE  -
|  1> #
|  2> # TMD15_TiBr TPSSh-D3BJ/Def2-TZVPPD
|  3> #
|  4> ! tpssh d3bj def2-tzvppd def2/jk grid4 nofinalgrid
|  5>
|  6> *xyz 0 4
|  7> Ti       0.000000    0.000000   -1.485965
|  8> Br       0.000000    0.000000    0.934035
|  9> *
| 10>
| 11> %maxcore 5000
| 12>
| 13> %pal
| 14> nprocs = 24
| 15> end
| 16>
| 17>
| 18>                          ****END OF INPUT****

CARTESIAN COORDINATES (ANGSTROEM)
---------------------------------
  Ti     0.000000    0.000000   -1.485965
  Br     0.000000    0.000000    0.934035

 Total Charge           Charge          ....    0
 Multiplicity           Mult            ....    4
 Number of Electrons    NEL             ....   57
 Basis Dimension        Dim             ....  124

ORBITAL ENERGIES
----------------
                 SPIN UP ORBITALS
  NO   OCC          E(Eh)            E(eV)
   0   1.0000    -482.513618    -13129.8631
   1   1.0000    -178.626186     -4860.6656
   2   1.0000     -62.228471     -1693.3228
   3   1.0000     -56.012295     -1524.1720
   4   1.0000     -56.011806     -1524.1587
   5   1.0000     -56.011806     -1524.1587
   6   1.0000     -19.703765      -536.1667
   7   1.0000     -16.403944      -446.3740
   8   1.0000     -16.393039      -446.0773
   9   1.0000     -16.393039      -446.0773
  10   1.0000      -8.574705      -233.3296
  11   1.0000      -6.389903      -173.8781
  12   1.0000      -6.388199      -173.8317
  13   1.0000      -6.388199      -173.8317
  14   1.0000      -2.514788       -68.4309
  15   1.0000      -2.514107       -68.4123
  16   1.0000      -2.514107       -68.4123
  17   1.0000      -2.512712       -68.3744
  18   1.0000      -2.512673       -68.3733
  19   1.0000      -2.308895       -62.8282
  20   1.0000      -1.441523       -39.2258
  21   1.0000      -1.426381       -38.8138
  22   1.0000      -1.426381       -38.8138
  23   1.0000      -0.697475       -18.9793
  24   1.0000      -0.296922        -8.0797
  25   1.0000      -0.263231        -7.1629
  26   1.0000      -0.263231        -7.1629
  27   1.0000      -0.171831        -4.6758
  28   1.0000      -0.143568        -3.9067
  29   1.0000      -0.143567        -3.9067
  30   0.0000      -0.093821        -2.5530
  31   0.0000      -0.082404        -2.2423
  32   0.0000      -0.082404        -2.2423
  33   0.0000      -0.031894        -0.8679
  34   0.0000      -0.031894        -0.8679

                 SPIN DOWN ORBITALS
  NO   OCC          E(Eh)            E(eV)
   0   1.0000    -482.513850    -13129.8694
   1   1.0000    -178.625660     -4860.6513
   2   1.0000     -62.228547     -1693.3248
   3   1.0000     -56.012560     -1524.1792
   4   1.0000     -56.011973     -1524.1633
   5   1.0000     -56.011973     -1524.1633
   6   1.0000     -19.681219      -535.5532
   7   1.0000     -16.393550      -446.0912
   8   1.0000     -16.370020      -445.4509
   9   1.0000     -16.370020      -445.4509
  10   1.0000      -8.575020      -233.3382
  11   1.0000      -6.390392      -173.8914
  12   1.0000      -6.388520      -173.8405
  13   1.0000      -6.388520      -173.8405
  14   1.0000      -2.515237       -68.4431
  15   1.0000      -2.514543       -68.4242
  16   1.0000      -2.514543       -68.4242
  17   1.0000      -2.513037       -68.3832
  18   1.0000      -2.512998       -68.3822
  19   1.0000      -2.231682       -60.7272
  20   1.0000      -1.393213       -37.9112
  21   1.0000      -1.326737       -36.1023
  22   1.0000      -1.326737       -36.1023
  23   1.0000      -0.699925       -19.0459
  24   1.0000      -0.293438        -7.9848
  25   1.0000      -0.263294        -7.1646
  26   1.0000      -0.263294        -7.1646
  27   0.0000      -0.088939        -2.4202
  28   0.0000      -0.044396        -1.2081
  29   0.0000      -0.044396        -1.2081
  30   0.0000      -0.042508        -1.1567
  31   0.0000      -0.005407        -0.1471

MULLIKEN ATOMIC CHARGES AND SPIN POPULATIONS
--------------------------------------------
   0 Ti:    0.278025    3.078810
   1 Br:   -0.278025   -0.078810
Sum of atomic charges         :   -0.0000000

LOEWDIN ATOMIC CHARGES AND SPIN POPULATIONS
-------------------------------------------
   0 Ti:    0.014633    2.938471
   1 Br:   -0.014633    0.061529

  Mayer bond orders larger than 0.100000
B(  0-Ti,  1-Br) :   1.2138

Dispersion correction           -0.001864756
FINAL SINGLE POINT ENERGY     -3423.532265646726

DIPOLE MOMENT
-------------
                                X             Y             Z
Electronic contribution:      0.00000       0.00000       0.83154
Nuclear contribution   :      0.00000       0.00000      -2.90920
                        -----------------------------------------
Total Dipole Moment    :      0.00000       0.00000      -2.07767
                        -----------------------------------------
Magnitude (a.u.)       :      2.07767
Magnitude (Debye)      :      5.28101

Rotational constants in cm-1:     0.000000     0.096120     0.096120
Rotational constants in MHz :     0.000000  2881.611529  2881.611529

                             ****ORCA TERMINATED NORMALLY****
TOTAL RUN TIME: 0 days 0 hours 0 minutes 5 seconds 735 msec
