                         Program Version 4.2.0 -  RELEASE  -
|  1> #
|  2> # TMD11_Fe TPSSh-D3BJ/Def2-TZVPPD
|  3> #
|  4> ! tpssh d3bj def2-tzvppd def2/jk grid4 nofinalgrid
|  5>
|  6> *xyz 0 5
|  7> Fe       0.000000    0.000000    0.000000
|  8> *
|  9>
| 10> %maxcore 5000
| 11>
| 12> %pal
| 13> nprocs = 24
| 14> end
| 15>
| 16>
| 17>                          ****END OF INPUT****

CARTESIAN COORDINATES (ANGSTROEM)
---------------------------------
  Fe     0.000000    0.000000    0.000000

 Total Charge           Charge          ....    0
 Multiplicity           Mult            ....    5
 Number of Electrons    NEL             ....   26
 Basis Dimension        Dim             ....   67

ORBITAL ENERGIES
----------------
                 SPIN UP ORBITALS
  NO   OCC          E(Eh)            E(eV)
   0   1.0000    -255.761099     -6959.6133
   1   1.0000     -29.783330      -810.4456
   2   1.0000     -25.617933      -697.0994
   3   1.0000     -25.617929      -697.0993
   4   1.0000     -25.617925      -697.0992
   5   1.0000      -3.360365       -91.4402
   6   1.0000      -2.138646       -58.1955
   7   1.0000      -2.138635       -58.1952
   8   1.0000      -2.138627       -58.1950
   9   1.0000      -0.213886        -5.8201
  10   1.0000      -0.213884        -5.8201
  11   1.0000      -0.213879        -5.8200
  12   1.0000      -0.175456        -4.7744
  13   1.0000      -0.175451        -4.7743
  14   1.0000      -0.175299        -4.7701
  15   0.0000      -0.027321        -0.7434
  16   0.0000      -0.027317        -0.7433
  17   0.0000      -0.027315        -0.7433
  18   0.0000       0.101309         2.7568
  19   0.0000       0.101313         2.7569

                 SPIN DOWN ORBITALS
  NO   OCC          E(Eh)            E(eV)
   0   1.0000    -255.759461     -6959.5688
   1   1.0000     -29.735252      -809.1373
   2   1.0000     -25.577687      -696.0042
   3   1.0000     -25.577685      -696.0042
   4   1.0000     -25.577682      -696.0041
   5   1.0000      -3.231086       -87.9223
   6   1.0000      -2.003624       -54.5214
   7   1.0000      -2.003621       -54.5213
   8   1.0000      -2.003618       -54.5212
   9   1.0000      -0.125883        -3.4255
  10   1.0000      -0.125881        -3.4254
  11   0.0000      -0.095570        -2.6006
  12   0.0000       0.007374         0.2007
  13   0.0000       0.007394         0.2012
  14   0.0000       0.007423         0.2020
  15   0.0000       0.007447         0.2027

MULLIKEN ATOMIC CHARGES AND SPIN POPULATIONS
--------------------------------------------
   0 Fe:   -0.000000    4.000000
Sum of atomic charges         :   -0.0000000

LOEWDIN ATOMIC CHARGES AND SPIN POPULATIONS
-------------------------------------------
   0 Fe:   -0.000000    4.000000

Dispersion correction            0.000000000
FINAL SINGLE POINT ENERGY     -1263.673987388790

DIPOLE MOMENT
-------------
                                X             Y             Z
Electronic contribution:     -0.00000      -0.00000       0.00000
Nuclear contribution   :      0.00000       0.00000       0.00000
                        -----------------------------------------
Total Dipole Moment    :     -0.00000      -0.00000       0.00000
                        -----------------------------------------
Magnitude (a.u.)       :      0.00000
Magnitude (Debye)      :      0.00000

Rotational constants in cm-1:     0.000000     0.000000     0.000000
Rotational constants in MHz :     0.000000     0.000000     0.000000

                             ****ORCA TERMINATED NORMALLY****
TOTAL RUN TIME: 0 days 0 hours 0 minutes 5 seconds 163 msec
