                         Program Version 4.2.0 -  RELEASE  -
|  1> #
|  2> # TMD16_VO TPSSh-D3BJ/Def2-TZVPPD
|  3> #
|  4> ! tpssh d3bj def2-tzvppd def2/jk grid4 nofinalgrid
|  5>
|  6> *xyz 0 4
|  7> V        0.000000    0.000000    0.412903
|  8> O        0.000000    0.000000   -1.187097
|  9> *
| 10>
| 11> %maxcore 5000
| 12>
| 13> %pal
| 14> nprocs = 24
| 15> end
| 16>
| 17>
| 18>                          ****END OF INPUT****

CARTESIAN COORDINATES (ANGSTROEM)
---------------------------------
  V      0.000000    0.000000    0.412903
  O      0.000000    0.000000   -1.187097

 Total Charge           Charge          ....    0
 Multiplicity           Mult            ....    4
 Number of Electrons    NEL             ....   31
 Basis Dimension        Dim             ....  107

ORBITAL ENERGIES
----------------
                 SPIN UP ORBITALS
  NO   OCC          E(Eh)            E(eV)
   0   1.0000    -196.661290     -5351.4258
   1   1.0000     -22.108036      -601.5903
   2   1.0000     -19.038128      -518.0538
   3   1.0000     -18.594234      -505.9748
   4   1.0000     -18.584266      -505.7036
   5   1.0000     -18.584266      -505.7036
   6   1.0000      -2.608362       -70.9771
   7   1.0000      -1.660534       -45.1854
   8   1.0000      -1.643435       -44.7201
   9   1.0000      -1.643435       -44.7201
  10   1.0000      -0.843268       -22.9465
  11   1.0000      -0.322169        -8.7667
  12   1.0000      -0.305460        -8.3120
  13   1.0000      -0.305460        -8.3120
  14   1.0000      -0.194561        -5.2943
  15   1.0000      -0.194561        -5.2943
  16   1.0000      -0.181180        -4.9302
  17   0.0000      -0.095833        -2.6077
  18   0.0000      -0.095833        -2.6077
  19   0.0000      -0.073751        -2.0069
  20   0.0000      -0.011439        -0.3113
  21   0.0000      -0.011439        -0.3113

                 SPIN DOWN ORBITALS
  NO   OCC          E(Eh)            E(eV)
   0   1.0000    -196.660433     -5351.4024
   1   1.0000     -22.079282      -600.8078
   2   1.0000     -19.047313      -518.3037
   3   1.0000     -18.581519      -505.6288
   4   1.0000     -18.554698      -504.8990
   5   1.0000     -18.554698      -504.8990
   6   1.0000      -2.519378       -68.5558
   7   1.0000      -1.610486       -43.8236
   8   1.0000      -1.527308       -41.5602
   9   1.0000      -1.527308       -41.5602
  10   1.0000      -0.860824       -23.4242
  11   1.0000      -0.317468        -8.6387
  12   1.0000      -0.311090        -8.4652
  13   1.0000      -0.311090        -8.4652
  14   0.0000      -0.092513        -2.5174
  15   0.0000      -0.045332        -1.2335
  16   0.0000      -0.045332        -1.2335
  17   0.0000      -0.030294        -0.8243
  18   0.0000      -0.030124        -0.8197

MULLIKEN ATOMIC CHARGES AND SPIN POPULATIONS
--------------------------------------------
   0 V :    0.668312    3.245691
   1 O :   -0.668312   -0.245691
Sum of atomic charges         :    0.0000000

LOEWDIN ATOMIC CHARGES AND SPIN POPULATIONS
-------------------------------------------
   0 V :    0.390816    3.080876
   1 O :   -0.390816   -0.080876

  Mayer bond orders larger than 0.100000
B(  0-V ,  1-O ) :   2.3409

Dispersion correction           -0.000834273
FINAL SINGLE POINT ENERGY     -1019.256482293686

DIPOLE MOMENT
-------------
                                X             Y             Z
Electronic contribution:      0.00000      -0.00000       3.26670
Nuclear contribution   :      0.00000       0.00000      -1.78611
                        -----------------------------------------
Total Dipole Moment    :      0.00000      -0.00000       1.48059
                        -----------------------------------------
Magnitude (a.u.)       :      1.48059
Magnitude (Debye)      :      3.76335

Rotational constants in cm-1:     0.000000     0.540859     0.540859
Rotational constants in MHz :     0.000000 16214.556702 16214.556702

                             ****ORCA TERMINATED NORMALLY****
TOTAL RUN TIME: 0 days 0 hours 0 minutes 5 seconds 335 msec
