                         Program Version 4.2.0 -  RELEASE  -
|  1> #
|  2> # TMD17_CrS TPSSh-D3BJ/Def2-TZVPPD
|  3> #
|  4> ! tpssh d3bj def2-tzvppd def2/jk grid4 nofinalgrid
|  5>
|  6> *xyz 0 5
|  7> Cr       0.000000    0.000000    0.836000
|  8> S        0.000000    0.000000   -1.254000
|  9> *
| 10>
| 11> %maxcore 5000
| 12>
| 13> %pal
| 14> nprocs = 24
| 15> end
| 16>
| 17>
| 18>                          ****END OF INPUT****

CARTESIAN COORDINATES (ANGSTROEM)
---------------------------------
  Cr     0.000000    0.000000    0.836000
  S      0.000000    0.000000   -1.254000

 Total Charge           Charge          ....    0
 Multiplicity           Mult            ....    5
 Number of Electrons    NEL             ....   40
 Basis Dimension        Dim             ....  118

ORBITAL ENERGIES
----------------
                 SPIN UP ORBITALS
  NO   OCC          E(Eh)            E(eV)
   0   1.0000    -215.507624     -5864.2606
   1   1.0000     -88.671488     -2412.8739
   2   1.0000     -24.568835      -668.5520
   3   1.0000     -20.836493      -566.9898
   4   1.0000     -20.835368      -566.9592
   5   1.0000     -20.831025      -566.8410
   6   1.0000      -7.818725      -212.7583
   7   1.0000      -5.765242      -156.8802
   8   1.0000      -5.764036      -156.8474
   9   1.0000      -5.762737      -156.8120
  10   1.0000      -2.892383       -78.7058
  11   1.0000      -1.850448       -50.3532
  12   1.0000      -1.849488       -50.3271
  13   1.0000      -1.843050       -50.1519
  14   1.0000      -0.596840       -16.2408
  15   1.0000      -0.281666        -7.6645
  16   1.0000      -0.267498        -7.2790
  17   1.0000      -0.250093        -6.8054
  18   1.0000      -0.234289        -6.3753
  19   1.0000      -0.233769        -6.3612
  20   1.0000      -0.209706        -5.7064
  21   1.0000      -0.183154        -4.9839
  22   0.0000      -0.139835        -3.8051
  23   0.0000      -0.107405        -2.9226
  24   0.0000      -0.027801        -0.7565
  25   0.0000      -0.024192        -0.6583
  26   0.0000       0.017647         0.4802

                 SPIN DOWN ORBITALS
  NO   OCC          E(Eh)            E(eV)
   0   1.0000    -215.506688     -5864.2351
   1   1.0000     -88.675570     -2412.9849
   2   1.0000     -24.516272      -667.1217
   3   1.0000     -20.796362      -565.8978
   4   1.0000     -20.792066      -565.7809
   5   1.0000     -20.782340      -565.5162
   6   1.0000      -7.822203      -212.8530
   7   1.0000      -5.774924      -157.1437
   8   1.0000      -5.768869      -156.9789
   9   1.0000      -5.764418      -156.8578
  10   1.0000      -2.731801       -74.3361
  11   1.0000      -1.696259       -46.1576
  12   1.0000      -1.682221       -45.7755
  13   1.0000      -1.660128       -45.1744
  14   1.0000      -0.622990       -16.9524
  15   1.0000      -0.263230        -7.1628
  16   1.0000      -0.253643        -6.9020
  17   1.0000      -0.226594        -6.1659
  18   0.0000      -0.094236        -2.5643
  19   0.0000      -0.052115        -1.4181
  20   0.0000      -0.044780        -1.2185
  21   0.0000      -0.036457        -0.9920
  22   0.0000      -0.030558        -0.8315

MULLIKEN ATOMIC CHARGES AND SPIN POPULATIONS
--------------------------------------------
   0 Cr:    0.380234    4.785464
   1 S :   -0.380234   -0.785464
Sum of atomic charges         :   -0.0000000

LOEWDIN ATOMIC CHARGES AND SPIN POPULATIONS
-------------------------------------------
   0 Cr:    0.082167    4.440602
   1 S :   -0.082167   -0.440602

  Mayer bond orders larger than 0.100000
B(  0-Cr,  1-S ) :   1.8059

Dispersion correction           -0.001876090
FINAL SINGLE POINT ENERGY     -1442.699345798828

DIPOLE MOMENT
-------------
                                X             Y             Z
Electronic contribution:      0.00000      -0.00000       5.00380
Nuclear contribution   :      0.00000       0.00000      -2.93936
                        -----------------------------------------
Total Dipole Moment    :      0.00000      -0.00000       2.06444
                        -----------------------------------------
Magnitude (a.u.)       :      2.06444
Magnitude (Debye)      :      5.24739

Rotational constants in cm-1:     0.000000     0.194593     0.194593
Rotational constants in MHz :     0.000000  5833.746532  5833.746532

                             ****ORCA TERMINATED NORMALLY****
TOTAL RUN TIME: 0 days 0 hours 0 minutes 6 seconds 653 msec
