                         Program Version 4.2.0 -  RELEASE  -
|  1> #
|  2> # TMD10_Mn TPSSh-D3BJ/Def2-TZVPPD
|  3> #
|  4> ! tpssh d3bj def2-tzvppd def2/jk grid4 nofinalgrid
|  5>
|  6> *xyz 0 6
|  7> Mn       0.000000    0.000000    0.000000
|  8> *
|  9>
| 10> %maxcore 5000
| 11>
| 12> %pal
| 13> nprocs = 24
| 14> end
| 15>
| 16>
| 17>                          ****END OF INPUT****

CARTESIAN COORDINATES (ANGSTROEM)
---------------------------------
  Mn     0.000000    0.000000    0.000000

 Total Charge           Charge          ....    0
 Multiplicity           Mult            ....    6
 Number of Electrons    NEL             ....   25
 Basis Dimension        Dim             ....   67

ORBITAL ENERGIES
----------------
                 SPIN UP ORBITALS
  NO   OCC          E(Eh)            E(eV)
   0   1.0000    -235.312283     -6403.1728
   1   1.0000     -27.255403      -741.6572
   2   1.0000     -23.302931      -634.1050
   3   1.0000     -23.302921      -634.1047
   4   1.0000     -23.302912      -634.1045
   5   1.0000      -3.277122       -89.1750
   6   1.0000      -2.141318       -58.2682
   7   1.0000      -2.141307       -58.2679
   8   1.0000      -2.141298       -58.2677
   9   1.0000      -0.343788        -9.3549
  10   1.0000      -0.343787        -9.3549
  11   1.0000      -0.343781        -9.3548
  12   1.0000      -0.343780        -9.3547
  13   1.0000      -0.343773        -9.3545
  14   1.0000      -0.210332        -5.7234
  15   0.0000      -0.048703        -1.3253
  16   0.0000      -0.048670        -1.3244
  17   0.0000      -0.048641        -1.3236
  18   0.0000       0.079192         2.1549
  19   0.0000       0.079770         2.1707

                 SPIN DOWN ORBITALS
  NO   OCC          E(Eh)            E(eV)
   0   1.0000    -235.311188     -6403.1430
   1   1.0000     -27.177321      -739.5325
   2   1.0000     -23.237641      -632.3284
   3   1.0000     -23.237631      -632.3281
   4   1.0000     -23.237622      -632.3278
   5   1.0000      -3.062717       -83.3408
   6   1.0000      -1.918276       -52.1990
   7   1.0000      -1.918254       -52.1984
   8   1.0000      -1.918233       -52.1978
   9   1.0000      -0.170443        -4.6380
  10   0.0000      -0.096546        -2.6272
  11   0.0000      -0.096530        -2.6267
  12   0.0000      -0.096516        -2.6263
  13   0.0000      -0.096514        -2.6263
  14   0.0000      -0.096511        -2.6262

MULLIKEN ATOMIC CHARGES AND SPIN POPULATIONS
--------------------------------------------
   0 Mn:    0.000000    5.000000
Sum of atomic charges         :    0.0000000

LOEWDIN ATOMIC CHARGES AND SPIN POPULATIONS
-------------------------------------------
   0 Mn:   -0.000000    5.000000

Dispersion correction            0.000000000
FINAL SINGLE POINT ENERGY     -1150.980735979745

DIPOLE MOMENT
-------------
                                X             Y             Z
Electronic contribution:      0.00000       0.00000       0.00000
Nuclear contribution   :      0.00000       0.00000       0.00000
                        -----------------------------------------
Total Dipole Moment    :      0.00000       0.00000       0.00000
                        -----------------------------------------
Magnitude (a.u.)       :      0.00000
Magnitude (Debye)      :      0.00000

Rotational constants in cm-1:     0.000000     0.000000     0.000000
Rotational constants in MHz :     0.000000     0.000000     0.000000

                             ****ORCA TERMINATED NORMALLY****
TOTAL RUN TIME: 0 days 0 hours 0 minutes 5 seconds 300 msec
