                         Program Version 4.2.0 -  RELEASE  -
|  1> #
|  2> # TMD14_Zn TPSSh-D3BJ/Def2-TZVPPD
|  3> #
|  4> ! tpssh d3bj def2-tzvppd def2/jk grid4 nofinalgrid
|  5>
|  6> *xyz 0 1
|  7> Zn       0.000000    0.000000    0.000000
|  8> *
|  9>
| 10> %maxcore 5000
| 11>
| 12> %pal
| 13> nprocs = 24
| 14> end
| 15>
| 16>
| 17>                          ****END OF INPUT****

CARTESIAN COORDINATES (ANGSTROEM)
---------------------------------
  Zn     0.000000    0.000000    0.000000

 Total Charge           Charge          ....    0
 Multiplicity           Mult            ....    1
 Number of Electrons    NEL             ....   30
 Basis Dimension        Dim             ....   67

ORBITAL ENERGIES
----------------

  NO   OCC          E(Eh)            E(eV)
   0   2.0000    -346.995041     -9442.2151
   1   2.0000     -42.019460     -1143.4076
   2   2.0000     -36.969198     -1005.9830
   3   2.0000     -36.969198     -1005.9830
   4   2.0000     -36.969198     -1005.9830
   5   2.0000      -4.748529      -129.2140
   6   2.0000      -3.135059       -85.3093
   7   2.0000      -3.135059       -85.3093
   8   2.0000      -3.135059       -85.3093
   9   2.0000      -0.428035       -11.6474
  10   2.0000      -0.428035       -11.6474
  11   2.0000      -0.428035       -11.6474
  12   2.0000      -0.428035       -11.6474
  13   2.0000      -0.428035       -11.6474
  14   2.0000      -0.224035        -6.0963
  15   0.0000      -0.029809        -0.8112
  16   0.0000      -0.029809        -0.8112
  17   0.0000      -0.029809        -0.8112
  18   0.0000       0.052834         1.4377
  19   0.0000       0.052835         1.4377

MULLIKEN ATOMIC CHARGES
-----------------------
   0 Zn:   -0.000000
Sum of atomic charges:   -0.0000000

LOEWDIN ATOMIC CHARGES
----------------------
   0 Zn:   -0.000000

Dispersion correction            0.000000000
FINAL SINGLE POINT ENERGY     -1779.382094692356

DIPOLE MOMENT
-------------
                                X             Y             Z
Electronic contribution:      0.00000       0.00000      -0.00000
Nuclear contribution   :      0.00000       0.00000       0.00000
                        -----------------------------------------
Total Dipole Moment    :      0.00000       0.00000      -0.00000
                        -----------------------------------------
Magnitude (a.u.)       :      0.00000
Magnitude (Debye)      :      0.00000

Rotational constants in cm-1:     0.000000     0.000000     0.000000
Rotational constants in MHz :     0.000000     0.000000     0.000000

                             ****ORCA TERMINATED NORMALLY****
TOTAL RUN TIME: 0 days 0 hours 0 minutes 3 seconds 137 msec
