                         Program Version 4.2.0 -  RELEASE  -
|  1> #
|  2> # TMD19_FeCl TPSSh-D3BJ/Def2-TZVPPD
|  3> #
|  4> ! tpssh d3bj def2-tzvppd def2/jk grid4 nofinalgrid
|  5>
|  6> *xyz 0 6
|  7> Fe       0.000000    0.000000    0.869767
|  8> Cl       0.000000    0.000000   -1.330233
|  9> *
| 10>
| 11> %maxcore 5000
| 12>
| 13> %pal
| 14> nprocs = 24
| 15> end
| 16>
| 17>
| 18>                          ****END OF INPUT****

CARTESIAN COORDINATES (ANGSTROEM)
---------------------------------
  Fe     0.000000    0.000000    0.869767
  Cl     0.000000    0.000000   -1.330233

 Total Charge           Charge          ....    0
 Multiplicity           Mult            ....    6
 Number of Electrons    NEL             ....   43
 Basis Dimension        Dim             ....  118

ORBITAL ENERGIES
----------------
                 SPIN UP ORBITALS
  NO   OCC          E(Eh)            E(eV)
   0   1.0000    -255.931540     -6964.2513
   1   1.0000    -101.351675     -2757.9193
   2   1.0000     -29.981749      -815.8449
   3   1.0000     -25.831168      -702.9018
   4   1.0000     -25.803893      -702.1596
   5   1.0000     -25.803893      -702.1596
   6   1.0000      -9.353330      -254.5171
   7   1.0000      -7.096914      -193.1169
   8   1.0000      -7.094556      -193.0527
   9   1.0000      -7.094556      -193.0527
  10   1.0000      -3.563597       -96.9704
  11   1.0000      -2.374168       -64.6044
  12   1.0000      -2.319517       -63.1173
  13   1.0000      -2.319517       -63.1173
  14   1.0000      -0.771915       -21.0049
  15   1.0000      -0.414432       -11.2773
  16   1.0000      -0.395904       -10.7731
  17   1.0000      -0.395904       -10.7731
  18   1.0000      -0.372873       -10.1464
  19   1.0000      -0.331185        -9.0120
  20   1.0000      -0.327710        -8.9174
  21   1.0000      -0.296554        -8.0696
  22   1.0000      -0.296554        -8.0696
  23   1.0000      -0.196246        -5.3401
  24   0.0000      -0.046800        -1.2735
  25   0.0000      -0.046800        -1.2735
  26   0.0000       0.004483         0.1220
  27   0.0000       0.048420         1.3176
  28   0.0000       0.065376         1.7790

                 SPIN DOWN ORBITALS
  NO   OCC          E(Eh)            E(eV)
   0   1.0000    -255.929364     -6964.1920
   1   1.0000    -101.349871     -2757.8702
   2   1.0000     -29.914168      -814.0059
   3   1.0000     -25.764886      -701.0982
   4   1.0000     -25.752013      -700.7479
   5   1.0000     -25.752013      -700.7479
   6   1.0000      -9.351887      -254.4778
   7   1.0000      -7.094193      -193.0428
   8   1.0000      -7.092553      -192.9982
   9   1.0000      -7.092553      -192.9982
  10   1.0000      -3.388245       -92.1988
  11   1.0000      -2.157481       -58.7081
  12   1.0000      -2.155284       -58.6482
  13   1.0000      -2.155284       -58.6482
  14   1.0000      -0.761010       -20.7081
  15   1.0000      -0.349090        -9.4992
  16   1.0000      -0.302849        -8.2409
  17   1.0000      -0.302849        -8.2409
  18   1.0000      -0.258184        -7.0255
  19   0.0000      -0.158184        -4.3044
  20   0.0000      -0.141707        -3.8560
  21   0.0000      -0.141707        -3.8560
  22   0.0000      -0.108486        -2.9521
  23   0.0000      -0.105381        -2.8676

MULLIKEN ATOMIC CHARGES AND SPIN POPULATIONS
--------------------------------------------
   0 Fe:    0.375032    4.859116
   1 Cl:   -0.375032    0.140884
Sum of atomic charges         :   -0.0000000

LOEWDIN ATOMIC CHARGES AND SPIN POPULATIONS
-------------------------------------------
   0 Fe:    0.191490    4.636741
   1 Cl:   -0.191490    0.363259

  Mayer bond orders larger than 0.100000
B(  0-Fe,  1-Cl) :   0.8348

Dispersion correction           -0.001348787
FINAL SINGLE POINT ENERGY     -1723.980845097710

DIPOLE MOMENT
-------------
                                X             Y             Z
Electronic contribution:      0.00000       0.00000       2.08146
Nuclear contribution   :      0.00000       0.00000      -1.26002
                        -----------------------------------------
Total Dipole Moment    :      0.00000       0.00000       0.82144
                        -----------------------------------------
Magnitude (a.u.)       :      0.82144
Magnitude (Debye)      :      2.08793

Rotational constants in cm-1:     0.000000     0.160606     0.160606
Rotational constants in MHz :     0.000000  4814.831818  4814.831818

                             ****ORCA TERMINATED NORMALLY****
TOTAL RUN TIME: 0 days 0 hours 0 minutes 4 seconds 658 msec
