                         Program Version 4.2.0 -  RELEASE  -
|  1> #
|  2> # TMD12_Co TPSSh-D3BJ/Def2-TZVPPD
|  3> #
|  4> ! tpssh d3bj def2-tzvppd def2/jk grid4 nofinalgrid
|  5>
|  6> *xyz 0 4
|  7> Co       0.000000    0.000000    0.000000
|  8> *
|  9>
| 10> %maxcore 5000
| 11>
| 12> %pal
| 13> nprocs = 24
| 14> end
| 15>
| 16>
| 17>                          ****END OF INPUT****

CARTESIAN COORDINATES (ANGSTROEM)
---------------------------------
  Co     0.000000    0.000000    0.000000

 Total Charge           Charge          ....    0
 Multiplicity           Mult            ....    4
 Number of Electrons    NEL             ....   27
 Basis Dimension        Dim             ....   67

ORBITAL ENERGIES
----------------
                 SPIN UP ORBITALS
  NO   OCC          E(Eh)            E(eV)
   0   1.0000    -277.226926     -7543.7282
   1   1.0000     -32.611146      -887.3944
   2   1.0000     -28.227489      -768.1090
   3   1.0000     -28.227480      -768.1088
   4   1.0000     -28.227455      -768.1081
   5   1.0000      -3.640168       -99.0540
   6   1.0000      -2.325391       -63.2771
   7   1.0000      -2.325386       -63.2770
   8   1.0000      -2.325326       -63.2753
   9   1.0000      -0.234193        -6.3727
  10   1.0000      -0.234191        -6.3727
  11   1.0000      -0.192842        -5.2475
  12   1.0000      -0.192826        -5.2471
  13   1.0000      -0.192811        -5.2467
  14   1.0000      -0.178379        -4.8539
  15   0.0000      -0.024640        -0.6705
  16   0.0000      -0.024606        -0.6696
  17   0.0000      -0.024595        -0.6693
  18   0.0000       0.113257         3.0819
  19   0.0000       0.113291         3.0828

                 SPIN DOWN ORBITALS
  NO   OCC          E(Eh)            E(eV)
   0   1.0000    -277.225345     -7543.6851
   1   1.0000     -32.576661      -886.4560
   2   1.0000     -28.198473      -767.3195
   3   1.0000     -28.198459      -767.3191
   4   1.0000     -28.198445      -767.3187
   5   1.0000      -3.548752       -96.5664
   6   1.0000      -2.230293       -60.6894
   7   1.0000      -2.230261       -60.6885
   8   1.0000      -2.230253       -60.6883
   9   1.0000      -0.152940        -4.1617
  10   1.0000      -0.152936        -4.1616
  11   1.0000      -0.152899        -4.1606
  12   0.0000      -0.102981        -2.8023
  13   0.0000      -0.015783        -0.4295
  14   0.0000      -0.015752        -0.4286
  15   0.0000       0.007668         0.2087
  16   0.0000       0.007709         0.2098

MULLIKEN ATOMIC CHARGES AND SPIN POPULATIONS
--------------------------------------------
   0 Co:   -0.000000    3.000000
Sum of atomic charges         :   -0.0000000

LOEWDIN ATOMIC CHARGES AND SPIN POPULATIONS
-------------------------------------------
   0 Co:   -0.000000    3.000000

Dispersion correction            0.000000000
FINAL SINGLE POINT ENERGY     -1382.741196797030

DIPOLE MOMENT
-------------
                                X             Y             Z
Electronic contribution:      0.00000      -0.00000       0.00000
Nuclear contribution   :      0.00000       0.00000       0.00000
                        -----------------------------------------
Total Dipole Moment    :      0.00000      -0.00000       0.00000
                        -----------------------------------------
Magnitude (a.u.)       :      0.00000
Magnitude (Debye)      :      0.00000

Rotational constants in cm-1:     0.000000     0.000000     0.000000
Rotational constants in MHz :     0.000000     0.000000     0.000000

                             ****ORCA TERMINATED NORMALLY****
TOTAL RUN TIME: 0 days 0 hours 0 minutes 3 seconds 734 msec
