                         Program Version 4.2.0 -  RELEASE  -
|  1> #
|  2> # TMD18_MnBr TPSSh-D3BJ/Def2-TZVPPD
|  3> #
|  4> ! tpssh d3bj def2-tzvppd def2/jk grid4 nofinalgrid
|  5>
|  6> *xyz 0 7
|  7> Mn       0.000000    0.000000   -1.400000
|  8> Br       0.000000    0.000000    1.000000
|  9> *
| 10>
| 11> %maxcore 5000
| 12>
| 13> %pal
| 14> nprocs = 24
| 15> end
| 16>
| 17>
| 18>                          ****END OF INPUT****

CARTESIAN COORDINATES (ANGSTROEM)
---------------------------------
  Mn     0.000000    0.000000   -1.400000
  Br     0.000000    0.000000    1.000000

 Total Charge           Charge          ....    0
 Multiplicity           Mult            ....    7
 Number of Electrons    NEL             ....   60
 Basis Dimension        Dim             ....  124

ORBITAL ENERGIES
----------------
                 SPIN UP ORBITALS
  NO   OCC          E(Eh)            E(eV)
   0   1.0000    -482.525775    -13130.1939
   1   1.0000    -235.330311     -6403.6633
   2   1.0000     -62.240361     -1693.6463
   3   1.0000     -56.024578     -1524.5063
   4   1.0000     -56.023745     -1524.4836
   5   1.0000     -56.023745     -1524.4836
   6   1.0000     -27.269959      -742.0533
   7   1.0000     -23.318848      -634.5381
   8   1.0000     -23.318848      -634.5381
   9   1.0000     -23.316066      -634.4624
  10   1.0000      -8.586934      -233.6624
  11   1.0000      -6.402751      -174.2277
  12   1.0000      -6.400223      -174.1589
  13   1.0000      -6.400223      -174.1589
  14   1.0000      -3.292061       -89.5815
  15   1.0000      -2.527467       -68.7759
  16   1.0000      -2.526633       -68.7532
  17   1.0000      -2.526633       -68.7532
  18   1.0000      -2.524644       -68.6990
  19   1.0000      -2.524604       -68.6980
  20   1.0000      -2.159615       -58.7661
  21   1.0000      -2.159615       -58.7661
  22   1.0000      -2.151815       -58.5539
  23   1.0000      -0.716428       -19.4950
  24   1.0000      -0.377434       -10.2705
  25   1.0000      -0.367063        -9.9883
  26   1.0000      -0.367063        -9.9883
  27   1.0000      -0.366986        -9.9862
  28   1.0000      -0.366986        -9.9862
  29   1.0000      -0.304849        -8.2954
  30   1.0000      -0.268091        -7.2951
  31   1.0000      -0.268091        -7.2951
  32   1.0000      -0.193731        -5.2717
  33   0.0000      -0.056348        -1.5333
  34   0.0000      -0.056348        -1.5333
  35   0.0000      -0.001425        -0.0388
  36   0.0000       0.039674         1.0796
  37   0.0000       0.051535         1.4023

                 SPIN DOWN ORBITALS
  NO   OCC          E(Eh)            E(eV)
   0   1.0000    -482.525325    -13130.1816
   1   1.0000    -235.328172     -6403.6051
   2   1.0000     -62.240174     -1693.6413
   3   1.0000     -56.024047     -1524.4918
   4   1.0000     -56.023421     -1524.4748
   5   1.0000     -56.023421     -1524.4748
   6   1.0000     -27.193322      -739.9679
   7   1.0000     -23.254296      -632.7816
   8   1.0000     -23.254296      -632.7816
   9   1.0000     -23.252464      -632.7317
  10   1.0000      -8.586278      -233.6445
  11   1.0000      -6.401802      -174.2019
  12   1.0000      -6.399564      -174.1410
  13   1.0000      -6.399564      -174.1410
  14   1.0000      -3.080877       -83.8349
  15   1.0000      -2.526518       -68.7501
  16   1.0000      -2.525749       -68.7291
  17   1.0000      -2.525749       -68.7291
  18   1.0000      -2.523942       -68.6800
  19   1.0000      -2.523902       -68.6789
  20   1.0000      -1.939580       -52.7787
  21   1.0000      -1.939580       -52.7787
  22   1.0000      -1.934062       -52.6285
  23   1.0000      -0.709539       -19.3076
  24   1.0000      -0.315668        -8.5898
  25   1.0000      -0.273624        -7.4457
  26   1.0000      -0.273624        -7.4457
  27   0.0000      -0.129490        -3.5236
  28   0.0000      -0.117368        -3.1938
  29   0.0000      -0.117366        -3.1937
  30   0.0000      -0.111269        -3.0278
  31   0.0000      -0.111269        -3.0278

MULLIKEN ATOMIC CHARGES AND SPIN POPULATIONS
--------------------------------------------
   0 Mn:    0.325089    5.964088
   1 Br:   -0.325089    0.035912
Sum of atomic charges         :   -0.0000000

LOEWDIN ATOMIC CHARGES AND SPIN POPULATIONS
-------------------------------------------
   0 Mn:    0.208741    5.694923
   1 Br:   -0.208741    0.305077

  Mayer bond orders larger than 0.100000
B(  0-Mn,  1-Br) :   0.7789

Dispersion correction           -0.001621169
FINAL SINGLE POINT ENERGY     -3725.137185958771

DIPOLE MOMENT
-------------
                                X             Y             Z
Electronic contribution:     -0.00000      -0.00000       1.42112
Nuclear contribution   :      0.00000       0.00000      -2.50917
                        -----------------------------------------
Total Dipole Moment    :     -0.00000      -0.00000      -1.08805
                        -----------------------------------------
Magnitude (a.u.)       :      1.08805
Magnitude (Debye)      :      2.76561

Rotational constants in cm-1:     0.000000     0.089900     0.089900
Rotational constants in MHz :     0.000000  2695.122005  2695.122005

                             ****ORCA TERMINATED NORMALLY****
TOTAL RUN TIME: 0 days 0 hours 0 minutes 5 seconds 202 msec
