                         Program Version 4.2.0 -  RELEASE  -
|  1> #
|  2> # TMD23_CuBr TPSSh-D3BJ/Def2-TZVPPD
|  3> #
|  4> ! tpssh d3bj def2-tzvppd def2/jk grid4 nofinalgrid
|  5>
|  6> *xyz 0 1
|  7> Cu       0.000000    0.000000   -1.208594
|  8> Br       0.000000    0.000000    1.001406
|  9> *
| 10>
| 11> %maxcore 5000
| 12>
| 13> %pal
| 14> nprocs = 24
| 15> end
| 16>
| 17>
| 18>                          ****END OF INPUT****

CARTESIAN COORDINATES (ANGSTROEM)
---------------------------------
  Cu     0.000000    0.000000   -1.208594
  Br     0.000000    0.000000    1.001406

 Total Charge           Charge          ....    0
 Multiplicity           Mult            ....    1
 Number of Electrons    NEL             ....   64
 Basis Dimension        Dim             ....  124

ORBITAL ENERGIES
----------------

  NO   OCC          E(Eh)            E(eV)
   0   2.0000    -482.518530    -13129.9967
   1   2.0000    -322.795650     -8783.7162
   2   2.0000     -62.232758     -1693.4394
   3   2.0000     -56.017733     -1524.3200
   4   2.0000     -56.015688     -1524.2644
   5   2.0000     -56.015688     -1524.2644
   6   2.0000     -38.667284     -1052.1903
   7   2.0000     -33.844092      -920.9446
   8   2.0000     -33.844092      -920.9446
   9   2.0000     -33.843955      -920.9408
  10   2.0000      -8.578885      -233.4433
  11   2.0000      -6.397243      -174.0778
  12   2.0000      -6.390781      -173.9020
  13   2.0000      -6.390781      -173.9020
  14   2.0000      -4.271403      -116.2308
  15   2.0000      -2.766806       -75.2886
  16   2.0000      -2.761149       -75.1347
  17   2.0000      -2.761149       -75.1347
  18   2.0000      -2.521261       -68.6070
  19   2.0000      -2.519410       -68.5566
  20   2.0000      -2.519410       -68.5566
  21   2.0000      -2.514419       -68.4208
  22   2.0000      -2.514380       -68.4198
  23   2.0000      -0.703037       -19.1306
  24   2.0000      -0.329915        -8.9774
  25   2.0000      -0.294296        -8.0082
  26   2.0000      -0.294296        -8.0082
  27   2.0000      -0.269823        -7.3423
  28   2.0000      -0.269820        -7.3422
  29   2.0000      -0.251381        -6.8404
  30   2.0000      -0.238692        -6.4951
  31   2.0000      -0.238692        -6.4951
  32   0.0000      -0.122791        -3.3413
  33   0.0000      -0.011284        -0.3070
  34   0.0000      -0.011284        -0.3070
  35   0.0000       0.020269         0.5516
  36   0.0000       0.057575         1.5667

MULLIKEN ATOMIC CHARGES
-----------------------
   0 Cu:    0.104850
   1 Br:   -0.104850
Sum of atomic charges:   -0.0000000

LOEWDIN ATOMIC CHARGES
----------------------
   0 Cu:    0.018828
   1 Br:   -0.018828

  Mayer bond orders larger than 0.100000
B(  0-Cu,  1-Br) :   1.1911

Dispersion correction           -0.001429979
FINAL SINGLE POINT ENERGY     -4214.643056687581

DIPOLE MOMENT
-------------
                                X             Y             Z
Electronic contribution:     -0.00000       0.00000       0.80433
Nuclear contribution   :      0.00000       0.00000      -2.70316
                        -----------------------------------------
Total Dipole Moment    :     -0.00000       0.00000      -1.89883
                        -----------------------------------------
Magnitude (a.u.)       :      1.89883
Magnitude (Debye)      :      4.82644

Rotational constants in cm-1:     0.000000     0.097510     0.097510
Rotational constants in MHz :     0.000000  2923.285786  2923.285786

                             ****ORCA TERMINATED NORMALLY****
TOTAL RUN TIME: 0 days 0 hours 0 minutes 4 seconds 870 msec
