                         Program Version 4.2.0 -  RELEASE  -
|  1> #
|  2> # TMD24_ZnS TPSSh-D3BJ/Def2-TZVPPD
|  3> #
|  4> ! tpssh d3bj def2-tzvppd def2/jk grid4 nofinalgrid
|  5>
|  6> *xyz 0 1
|  7> Zn       0.000000    0.000000    0.720000
|  8> S        0.000000    0.000000   -1.350000
|  9> *
| 10>
| 11> %maxcore 5000
| 12>
| 13> %pal
| 14> nprocs = 24
| 15> end
| 16>
| 17>
| 18>                          ****END OF INPUT****

CARTESIAN COORDINATES (ANGSTROEM)
---------------------------------
  Zn     0.000000    0.000000    0.720000
  S      0.000000    0.000000   -1.350000

 Total Charge           Charge          ....    0
 Multiplicity           Mult            ....    1
 Number of Electrons    NEL             ....   46
 Basis Dimension        Dim             ....  118

ORBITAL ENERGIES
----------------

  NO   OCC          E(Eh)            E(eV)
   0   2.0000    -347.076181     -9444.4230
   1   2.0000     -88.681766     -2413.1535
   2   2.0000     -42.100173     -1145.6039
   3   2.0000     -37.049920     -1008.1796
   4   2.0000     -37.049920     -1008.1796
   5   2.0000     -37.049880     -1008.1785
   6   2.0000      -7.826929      -212.9816
   7   2.0000      -5.780043      -157.2830
   8   2.0000      -5.769886      -157.0066
   9   2.0000      -5.769886      -157.0066
  10   2.0000      -4.832081      -131.4876
  11   2.0000      -3.221222       -87.6539
  12   2.0000      -3.217440       -87.5510
  13   2.0000      -3.217440       -87.5510
  14   2.0000      -0.631656       -17.1882
  15   2.0000      -0.514160       -13.9910
  16   2.0000      -0.514160       -13.9910
  17   2.0000      -0.507813       -13.8183
  18   2.0000      -0.507810       -13.8182
  19   2.0000      -0.506249       -13.7757
  20   2.0000      -0.305747        -8.3198
  21   2.0000      -0.217230        -5.9111
  22   2.0000      -0.217230        -5.9111
  23   0.0000      -0.165534        -4.5044
  24   0.0000      -0.036011        -0.9799
  25   0.0000      -0.036011        -0.9799
  26   0.0000       0.008303         0.2259
  27   0.0000       0.038739         1.0541

MULLIKEN ATOMIC CHARGES
-----------------------
   0 Zn:    0.286954
   1 S :   -0.286954
Sum of atomic charges:   -0.0000000

LOEWDIN ATOMIC CHARGES
----------------------
   0 Zn:    0.345760
   1 S :   -0.345760

  Mayer bond orders larger than 0.100000
B(  0-Zn,  1-S ) :   1.7913

Dispersion correction           -0.001627139
FINAL SINGLE POINT ENERGY     -2177.572101360628

DIPOLE MOMENT
-------------
                                X             Y             Z
Electronic contribution:      0.00000      -0.00000       5.55581
Nuclear contribution   :      0.00000       0.00000      -3.38342
                        -----------------------------------------
Total Dipole Moment    :      0.00000      -0.00000       2.17239
                        -----------------------------------------
Magnitude (a.u.)       :      2.17239
Magnitude (Debye)      :      5.52177

Rotational constants in cm-1:     0.000000     0.182888     0.182888
Rotational constants in MHz :     0.000000  5482.842292  5482.842292

                             ****ORCA TERMINATED NORMALLY****
TOTAL RUN TIME: 0 days 0 hours 0 minutes 4 seconds 775 msec
