                         Program Version 4.2.0 -  RELEASE  -
|  1> #
|  2> # TMD20_FeS TPSSh-D3BJ/Def2-TZVPPD
|  3> #
|  4> ! tpssh d3bj def2-tzvppd def2/jk grid4 nofinalgrid
|  5>
|  6> *xyz 0 5
|  7> Fe       0.000000    0.000000    0.769524
|  8> S        0.000000    0.000000   -1.250476
|  9> *
| 10>
| 11> %maxcore 5000
| 12>
| 13> %pal
| 14> nprocs = 24
| 15> end
| 16>
| 17>
| 18>                          ****END OF INPUT****

CARTESIAN COORDINATES (ANGSTROEM)
---------------------------------
  Fe     0.000000    0.000000    0.769524
  S      0.000000    0.000000   -1.250476

 Total Charge           Charge          ....    0
 Multiplicity           Mult            ....    5
 Number of Electrons    NEL             ....   42
 Basis Dimension        Dim             ....  118

ORBITAL ENERGIES
----------------
                 SPIN UP ORBITALS
  NO   OCC          E(Eh)            E(eV)
   0   1.0000    -255.868921     -6962.5473
   1   1.0000     -88.669256     -2412.8131
   2   1.0000     -29.906202      -813.7891
   3   1.0000     -25.752655      -700.7654
   4   1.0000     -25.732368      -700.2133
   5   1.0000     -25.732368      -700.2133
   6   1.0000      -7.815886      -212.6811
   7   1.0000      -5.762592      -156.8081
   8   1.0000      -5.762592      -156.8081
   9   1.0000      -5.762504      -156.8057
  10   1.0000      -3.481372       -94.7329
  11   1.0000      -2.288495       -62.2731
  12   1.0000      -2.242101       -61.0107
  13   1.0000      -2.242101       -61.0107
  14   1.0000      -0.617714       -16.8088
  15   1.0000      -0.337523        -9.1845
  16   1.0000      -0.329594        -8.9687
  17   1.0000      -0.329594        -8.9687
  18   1.0000      -0.305575        -8.3151
  19   1.0000      -0.265367        -7.2210
  20   1.0000      -0.245348        -6.6763
  21   1.0000      -0.210565        -5.7298
  22   1.0000      -0.210565        -5.7298
  23   0.0000      -0.126320        -3.4373
  24   0.0000      -0.024273        -0.6605
  25   0.0000      -0.024273        -0.6605
  26   0.0000       0.020754         0.5647
  27   0.0000       0.056826         1.5463

                 SPIN DOWN ORBITALS
  NO   OCC          E(Eh)            E(eV)
   0   1.0000    -255.867607     -6962.5115
   1   1.0000     -88.667463     -2412.7643
   2   1.0000     -29.850188      -812.2649
   3   1.0000     -25.701183      -699.3648
   4   1.0000     -25.687702      -698.9979
   5   1.0000     -25.687702      -698.9979
   6   1.0000      -7.814354      -212.6394
   7   1.0000      -5.763628      -156.8363
   8   1.0000      -5.758496      -156.6966
   9   1.0000      -5.758496      -156.6966
  10   1.0000      -3.336298       -90.7853
  11   1.0000      -2.115420       -57.5635
  12   1.0000      -2.102950       -57.2242
  13   1.0000      -2.102950       -57.2242
  14   1.0000      -0.604700       -16.4547
  15   1.0000      -0.275511        -7.4970
  16   1.0000      -0.228297        -6.2123
  17   1.0000      -0.228297        -6.2123
  18   1.0000      -0.207299        -5.6409
  19   0.0000      -0.126708        -3.4479
  20   0.0000      -0.100926        -2.7463
  21   0.0000      -0.100926        -2.7463
  22   0.0000      -0.084464        -2.2984
  23   0.0000      -0.065427        -1.7804

MULLIKEN ATOMIC CHARGES AND SPIN POPULATIONS
--------------------------------------------
   0 Fe:    0.408003    3.642971
   1 S :   -0.408003    0.357029
Sum of atomic charges         :   -0.0000000

LOEWDIN ATOMIC CHARGES AND SPIN POPULATIONS
-------------------------------------------
   0 Fe:    0.086195    3.496943
   1 S :   -0.086195    0.503057

  Mayer bond orders larger than 0.100000
B(  0-Fe,  1-S ) :   2.0689

Dispersion correction           -0.001526920
FINAL SINGLE POINT ENERGY     -1661.950253519153

DIPOLE MOMENT
-------------
                                X             Y             Z
Electronic contribution:     -0.00000       0.00000       4.78207
Nuclear contribution   :      0.00000       0.00000      -2.60707
                        -----------------------------------------
Total Dipole Moment    :     -0.00000       0.00000       2.17500
                        -----------------------------------------
Magnitude (a.u.)       :      2.17500
Magnitude (Debye)      :      5.52842

Rotational constants in cm-1:     0.000000     0.202836     0.202836
Rotational constants in MHz :     0.000000  6080.880231  6080.880231

                             ****ORCA TERMINATED NORMALLY****
TOTAL RUN TIME: 0 days 0 hours 0 minutes 4 seconds 724 msec
