                         Program Version 4.2.0 -  RELEASE  -
|  1> #
|  2> # TMD22_CoF TPSSh-D3BJ/Def2-TZVPPD
|  3> #
|  4> ! tpssh d3bj def2-tzvppd def2/jk grid4 nofinalgrid
|  5>
|  6> *xyz 0 3
|  7> Co       0.000000    0.000000    0.440000
|  8> F        0.000000    0.000000   -1.320000
|  9> *
| 10>
| 11> %maxcore 5000
| 12>
| 13> %pal
| 14> nprocs = 24
| 15> end
| 16>
| 17>
| 18>                          ****END OF INPUT****

CARTESIAN COORDINATES (ANGSTROEM)
---------------------------------
  Co     0.000000    0.000000    0.440000
  F      0.000000    0.000000   -1.320000

 Total Charge           Charge          ....    0
 Multiplicity           Mult            ....    3
 Number of Electrons    NEL             ....   36
 Basis Dimension        Dim             ....  107

ORBITAL ENERGIES
----------------
                 SPIN UP ORBITALS
  NO   OCC          E(Eh)            E(eV)
   0   1.0000    -277.285607     -7545.3250
   1   1.0000     -32.677460      -889.1989
   2   1.0000     -28.296725      -769.9930
   3   1.0000     -28.293821      -769.9140
   4   1.0000     -28.288316      -769.7642
   5   1.0000     -24.515991      -667.1140
   6   1.0000      -3.708054      -100.9013
   7   1.0000      -2.400226       -65.3135
   8   1.0000      -2.395736       -65.1913
   9   1.0000      -2.381451       -64.8026
  10   1.0000      -1.049109       -28.5477
  11   1.0000      -0.375137       -10.2080
  12   1.0000      -0.347075        -9.4444
  13   1.0000      -0.333911        -9.0862
  14   1.0000      -0.280689        -7.6379
  15   1.0000      -0.264776        -7.2049
  16   1.0000      -0.245225        -6.6729
  17   1.0000      -0.229348        -6.2409
  18   1.0000      -0.227202        -6.1825
  19   0.0000      -0.123998        -3.3742
  20   0.0000      -0.011731        -0.3192
  21   0.0000      -0.008658        -0.2356
  22   0.0000       0.031168         0.8481
  23   0.0000       0.076462         2.0806

                 SPIN DOWN ORBITALS
  NO   OCC          E(Eh)            E(eV)
   0   1.0000    -277.285102     -7545.3112
   1   1.0000     -32.639855      -888.1756
   2   1.0000     -28.264078      -769.1046
   3   1.0000     -28.261619      -769.0378
   4   1.0000     -28.257899      -768.9365
   5   1.0000     -24.514375      -667.0701
   6   1.0000      -3.611086       -98.2626
   7   1.0000      -2.296755       -62.4979
   8   1.0000      -2.289918       -62.3118
   9   1.0000      -2.288054       -62.2611
  10   1.0000      -1.045523       -28.4501
  11   1.0000      -0.362513        -9.8645
  12   1.0000      -0.327940        -8.9237
  13   1.0000      -0.318431        -8.6649
  14   1.0000      -0.209919        -5.7122
  15   1.0000      -0.197091        -5.3631
  16   1.0000      -0.190855        -5.1934
  17   0.0000      -0.111470        -3.0333
  18   0.0000      -0.073447        -1.9986
  19   0.0000      -0.062075        -1.6891
  20   0.0000      -0.007399        -0.2013
  21   0.0000      -0.006030        -0.1641

MULLIKEN ATOMIC CHARGES AND SPIN POPULATIONS
--------------------------------------------
   0 Co:    0.629971    1.958291
   1 F :   -0.629971    0.041709
Sum of atomic charges         :   -0.0000000

LOEWDIN ATOMIC CHARGES AND SPIN POPULATIONS
-------------------------------------------
   0 Co:    0.540506    1.960581
   1 F :   -0.540506    0.039419

  Mayer bond orders larger than 0.100000
B(  0-Co,  1-F ) :   0.7545

Dispersion correction           -0.000486717
FINAL SINGLE POINT ENERGY     -1482.670547438261

DIPOLE MOMENT
-------------
                                X             Y             Z
Electronic contribution:      0.00000       0.00000       2.60008
Nuclear contribution   :      0.00000       0.00000      -0.74365
                        -----------------------------------------
Total Dipole Moment    :      0.00000       0.00000       1.85644
                        -----------------------------------------
Magnitude (a.u.)       :      1.85644
Magnitude (Debye)      :      4.71869

Rotational constants in cm-1:     0.000000     0.378809     0.378809
Rotational constants in MHz :     0.000000 11356.420741 11356.420741

                             ****ORCA TERMINATED NORMALLY****
TOTAL RUN TIME: 0 days 0 hours 0 minutes 9 seconds 206 msec
