                         Program Version 4.2.0 -  RELEASE  -
|  1> #
|  2> # TMD21_CoH TPSSh-D3BJ/Def2-TZVPPD
|  3> #
|  4> ! tpssh d3bj def2-tzvppd def2/jk grid4 nofinalgrid
|  5>
|  6> *xyz 0 3
|  7> Co       0.000000    0.000000    0.053929
|  8> H        0.000000    0.000000   -1.456071
|  9> *
| 10>
| 11> %maxcore 5000
| 12>
| 13> %pal
| 14> nprocs = 24
| 15> end
| 16>
| 17>
| 18>                          ****END OF INPUT****

CARTESIAN COORDINATES (ANGSTROEM)
---------------------------------
  Co     0.000000    0.000000    0.053929
  H      0.000000    0.000000   -1.456071

 Total Charge           Charge          ....    0
 Multiplicity           Mult            ....    3
 Number of Electrons    NEL             ....   28
 Basis Dimension        Dim             ....   84

ORBITAL ENERGIES
----------------
                 SPIN UP ORBITALS
  NO   OCC          E(Eh)            E(eV)
   0   1.0000    -277.236726     -7543.9948
   1   1.0000     -32.623167      -887.7215
   2   1.0000     -28.239659      -768.4402
   3   1.0000     -28.239659      -768.4402
   4   1.0000     -28.238816      -768.4172
   5   1.0000      -3.646587       -99.2287
   6   1.0000      -2.331453       -63.4421
   7   1.0000      -2.331169       -63.4343
   8   1.0000      -2.331169       -63.4343
   9   1.0000      -0.287099        -7.8123
  10   1.0000      -0.238320        -6.4850
  11   1.0000      -0.204235        -5.5575
  12   1.0000      -0.200230        -5.4485
  13   1.0000      -0.200230        -5.4485
  14   1.0000      -0.196611        -5.3500
  15   0.0000      -0.078080        -2.1247
  16   0.0000      -0.018352        -0.4994
  17   0.0000      -0.018352        -0.4994
  18   0.0000       0.067963         1.8494
  19   0.0000       0.074552         2.0287

                 SPIN DOWN ORBITALS
  NO   OCC          E(Eh)            E(eV)
   0   1.0000    -277.235927     -7543.9731
   1   1.0000     -32.591643      -886.8637
   2   1.0000     -28.215311      -767.7777
   3   1.0000     -28.211606      -767.6768
   4   1.0000     -28.211606      -767.6768
   5   1.0000      -3.563754       -96.9747
   6   1.0000      -2.247904       -61.1686
   7   1.0000      -2.243565       -61.0505
   8   1.0000      -2.243565       -61.0505
   9   1.0000      -0.272406        -7.4125
  10   1.0000      -0.166916        -4.5420
  11   1.0000      -0.166916        -4.5420
  12   1.0000      -0.164759        -4.4833
  13   0.0000      -0.085007        -2.3132
  14   0.0000      -0.033639        -0.9154
  15   0.0000      -0.025969        -0.7066
  16   0.0000      -0.001143        -0.0311
  17   0.0000      -0.001143        -0.0311

MULLIKEN ATOMIC CHARGES AND SPIN POPULATIONS
--------------------------------------------
   0 Co:    0.029768    2.165359
   1 H :   -0.029768   -0.165359
Sum of atomic charges         :    0.0000000

LOEWDIN ATOMIC CHARGES AND SPIN POPULATIONS
-------------------------------------------
   0 Co:    0.238933    2.017518
   1 H :   -0.238933   -0.017518

  Mayer bond orders larger than 0.100000
B(  0-Co,  1-H ) :   0.9610

Dispersion correction           -0.000449239
FINAL SINGLE POINT ENERGY     -1383.339265087757

DIPOLE MOMENT
-------------
                                X             Y             Z
Electronic contribution:     -0.00000      -0.00000       2.63304
Nuclear contribution   :      0.00000       0.00000      -1.50982
                        -----------------------------------------
Total Dipole Moment    :     -0.00000      -0.00000       1.12323
                        -----------------------------------------
Magnitude (a.u.)       :      1.12323
Magnitude (Debye)      :      2.85501

Rotational constants in cm-1:     0.000000     7.460162     7.460162
Rotational constants in MHz :     0.000000 223650.041735 223650.041735

                             ****ORCA TERMINATED NORMALLY****
TOTAL RUN TIME: 0 days 0 hours 0 minutes 3 seconds 770 msec
