                         Program Version 4.2.0 -  RELEASE  -
|  1> #
|  2> # MOR09_ed07 wB97X-V/Def2-TZVPPD
|  3> #
|  4> ! wb97x-v def2-tzvppd def2/jk grid4 nofinalgrid
|  5>
|  6> *xyz 0 1
|  7> W        0.102077    0.091078   -0.092267
|  8> C        0.117393   -1.847063   -0.698289
|  9> O        0.106421   -2.944423   -1.101491
| 10> C        0.053830    0.623127   -1.953542
| 11> O        0.062184    0.954188   -3.084324
| 12> C       -0.079789    2.065684    0.368043
| 13> O       -0.241835    3.206144    0.563164
| 14> P       -2.374272   -0.093775    0.152024
| 15> C       -2.924700   -0.636961    1.860300
| 16> H       -4.020662   -0.654132    1.869520
| 17> C       -3.301587    1.526034   -0.042070
| 18> H       -2.720709    2.174283    0.626552
| 19> C       -3.158465   -1.412689   -0.926528
| 20> H       -2.602719   -2.298136   -0.589541
| 21> C        3.533012   -1.160075   -0.926747
| 22> P        2.541683   -0.047968    0.198665
| 23> H        3.436930   -0.493420    2.480788
| 24> H        3.117150   -2.146572   -0.686664
| 25> C        3.597094    1.476716    0.423185
| 26> H        4.630625    1.133957    0.560412
| 27> C       -3.162167    2.103519   -1.458162
| 28> H       -3.455722    3.159421   -1.453162
| 29> H       -3.815975    1.580772   -2.162650
| 30> H       -2.136423    2.033109   -1.825887
| 31> C       -4.764402    1.570333    0.422322
| 32> H       -5.415801    0.983387   -0.229568
| 33> H       -5.116762    2.608723    0.390691
| 34> H       -4.893747    1.210688    1.447022
| 35> C       -4.655036   -1.682881   -0.716884
| 36> H       -4.925909   -1.790522    0.337405
| 37> H       -4.929224   -2.613829   -1.227923
| 38> H       -5.265149   -0.883893   -1.147063
| 39> C       -2.846467   -1.236186   -2.419424
| 40> H       -3.119249   -2.151958   -2.956758
| 41> H       -1.787229   -1.039228   -2.589757
| 42> H       -3.419310   -0.412085   -2.852792
| 43> C       -2.418211   -2.050160    2.179041
| 44> H       -2.879973   -2.804800    1.536232
| 45> H       -2.649558   -2.306479    3.219697
| 46> H       -1.332968   -2.120913    2.045449
| 47> C       -2.447309    0.375917    2.910548
| 48> H       -1.357998    0.484909    2.881372
| 49> H       -2.729985    0.039964    3.915237
| 50> H       -2.881675    1.366975    2.750689
| 51> C        5.039293   -1.175311   -0.637409
| 52> H        5.257150   -1.324613    0.425881
| 53> H        5.510398   -0.237807   -0.951034
| 54> H        5.518847   -1.987312   -1.196567
| 55> C        3.236493   -0.904929   -2.411567
| 56> H        3.640990    0.053418   -2.749243
| 57> C        1.267139   -0.464900    2.531536
| 58> H        2.161630   -0.902783   -2.603826
| 59> H        3.697388   -1.694627   -3.016368
| 60> C        2.697601   -2.411104    1.824913
| 61> H        0.411078   -0.840608    1.910182
| 62> H        1.101298   -0.955345    3.499474
| 63> H        1.182937    0.613220    2.672323
| 64> C        2.601288   -0.882352    1.885247
| 65> H        2.586441   -2.826896    2.833616
| 66> H        3.659680   -2.747270    1.429848
| 67> H        1.903309   -2.831808    1.199333
| 68> C        3.181998    2.276906    1.664687
| 69> H        2.135318    2.587016    1.600131
| 70> H        3.793597    3.184158    1.733044
| 71> H        3.324478    1.710719    2.590306
| 72> C        3.508784    2.354763   -0.833649
| 73> H        2.465553    2.610163   -1.046808
| 74> H        3.919372    1.854332   -1.714343
| 75> H        4.068793    3.284623   -0.679973
| 76> *
| 77>
| 78> %maxcore 5000
| 79>
| 80> %pal
| 81> nprocs = 24
| 82> end
| 83>
| 84>
| 85>                          ****END OF INPUT****

CARTESIAN COORDINATES (ANGSTROEM)
---------------------------------
  W      0.102077    0.091078   -0.092267
  C      0.117393   -1.847063   -0.698289
  O      0.106421   -2.944423   -1.101491
  C      0.053830    0.623127   -1.953542
  O      0.062184    0.954188   -3.084324
  C     -0.079789    2.065684    0.368043
  O     -0.241835    3.206144    0.563164
  P     -2.374272   -0.093775    0.152024
  C     -2.924700   -0.636961    1.860300
  H     -4.020662   -0.654132    1.869520
  C     -3.301587    1.526034   -0.042070
  H     -2.720709    2.174283    0.626552
  C     -3.158465   -1.412689   -0.926528
  H     -2.602719   -2.298136   -0.589541
  C      3.533012   -1.160075   -0.926747
  P      2.541683   -0.047968    0.198665
  H      3.436930   -0.493420    2.480788
  H      3.117150   -2.146572   -0.686664
  C      3.597094    1.476716    0.423185
  H      4.630625    1.133957    0.560412
  C     -3.162167    2.103519   -1.458162
  H     -3.455722    3.159421   -1.453162
  H     -3.815975    1.580772   -2.162650
  H     -2.136423    2.033109   -1.825887
  C     -4.764402    1.570333    0.422322
  H     -5.415801    0.983387   -0.229568
  H     -5.116762    2.608723    0.390691
  H     -4.893747    1.210688    1.447022
  C     -4.655036   -1.682881   -0.716884
  H     -4.925909   -1.790522    0.337405
  H     -4.929224   -2.613829   -1.227923
  H     -5.265149   -0.883893   -1.147063
  C     -2.846467   -1.236186   -2.419424
  H     -3.119249   -2.151958   -2.956758
  H     -1.787229   -1.039228   -2.589757
  H     -3.419310   -0.412085   -2.852792
  C     -2.418211   -2.050160    2.179041
  H     -2.879973   -2.804800    1.536232
  H     -2.649558   -2.306479    3.219697
  H     -1.332968   -2.120913    2.045449
  C     -2.447309    0.375917    2.910548
  H     -1.357998    0.484909    2.881372
  H     -2.729985    0.039964    3.915237
  H     -2.881675    1.366975    2.750689
  C      5.039293   -1.175311   -0.637409
  H      5.257150   -1.324613    0.425881
  H      5.510398   -0.237807   -0.951034
  H      5.518847   -1.987312   -1.196567
  C      3.236493   -0.904929   -2.411567
  H      3.640990    0.053418   -2.749243
  C      1.267139   -0.464900    2.531536
  H      2.161630   -0.902783   -2.603826
  H      3.697388   -1.694627   -3.016368
  C      2.697601   -2.411104    1.824913
  H      0.411078   -0.840608    1.910182
  H      1.101298   -0.955345    3.499474
  H      1.182937    0.613220    2.672323
  C      2.601288   -0.882352    1.885247
  H      2.586441   -2.826896    2.833616
  H      3.659680   -2.747270    1.429848
  H      1.903309   -2.831808    1.199333
  C      3.181998    2.276906    1.664687
  H      2.135318    2.587016    1.600131
  H      3.793597    3.184158    1.733044
  H      3.324478    1.710719    2.590306
  C      3.508784    2.354763   -0.833649
  H      2.465553    2.610163   -1.046808
  H      3.919372    1.854332   -1.714343
  H      4.068793    3.284623   -0.679973

 Total Charge           Charge          ....    0
 Multiplicity           Mult            ....    1
 Number of Electrons    NEL             ....  236
 Basis Dimension        Dim             .... 1766

ORBITAL ENERGIES
----------------

  NO   OCC          E(Eh)            E(eV)
   0   2.0000     -77.086523     -2097.6309
   1   2.0000     -77.084648     -2097.5799
   2   2.0000     -19.260016      -524.0917
   3   2.0000     -19.258717      -524.0563
   4   2.0000     -19.215391      -522.8774
   5   2.0000     -10.361804      -281.9590
   6   2.0000     -10.361550      -281.9521
   7   2.0000     -10.329336      -281.0755
   8   2.0000     -10.300616      -280.2940
   9   2.0000     -10.300127      -280.2807
  10   2.0000     -10.290136      -280.0088
  11   2.0000     -10.289614      -279.9946
  12   2.0000     -10.288250      -279.9575
  13   2.0000     -10.284205      -279.8475
  14   2.0000     -10.283848      -279.8377
  15   2.0000     -10.278639      -279.6960
  16   2.0000     -10.274489      -279.5831
  17   2.0000     -10.272452      -279.5276
  18   2.0000     -10.272045      -279.5165
  19   2.0000     -10.270280      -279.4685
  20   2.0000     -10.267440      -279.3913
  21   2.0000     -10.266467      -279.3648
  22   2.0000     -10.264319      -279.3063
  23   2.0000     -10.259639      -279.1790
  24   2.0000     -10.255927      -279.0780
  25   2.0000     -10.253771      -279.0193
  26   2.0000      -6.666464      -181.4037
  27   2.0000      -6.663375      -181.3196
  28   2.0000      -4.820377      -131.1691
  29   2.0000      -4.819671      -131.1499
  30   2.0000      -4.817039      -131.0783
  31   2.0000      -4.816908      -131.0747
  32   2.0000      -4.816311      -131.0585
  33   2.0000      -4.813439      -130.9803
  34   2.0000      -3.010639       -81.9237
  35   2.0000      -1.664271       -45.2871
  36   2.0000      -1.662748       -45.2457
  37   2.0000      -1.652200       -44.9586
  38   2.0000      -1.225619       -33.3508
  39   2.0000      -1.224174       -33.3115
  40   2.0000      -1.181778       -32.1578
  41   2.0000      -0.966018       -26.2867
  42   2.0000      -0.955725       -26.0066
  43   2.0000      -0.934574       -25.4311
  44   2.0000      -0.924045       -25.1445
  45   2.0000      -0.922350       -25.0984
  46   2.0000      -0.917751       -24.9733
  47   2.0000      -0.841467       -22.8975
  48   2.0000      -0.827080       -22.5060
  49   2.0000      -0.823182       -22.3999
  50   2.0000      -0.820807       -22.3353
  51   2.0000      -0.819822       -22.3085
  52   2.0000      -0.809730       -22.0339
  53   2.0000      -0.789396       -21.4806
  54   2.0000      -0.783457       -21.3189
  55   2.0000      -0.725341       -19.7375
  56   2.0000      -0.714069       -19.4308
  57   2.0000      -0.711492       -19.3607
  58   2.0000      -0.710917       -19.3450
  59   2.0000      -0.683346       -18.5948
  60   2.0000      -0.653694       -17.7879
  61   2.0000      -0.651739       -17.7347
  62   2.0000      -0.642202       -17.4752
  63   2.0000      -0.628580       -17.1045
  64   2.0000      -0.606749       -16.5105
  65   2.0000      -0.597773       -16.2662
  66   2.0000      -0.592754       -16.1296
  67   2.0000      -0.586177       -15.9507
  68   2.0000      -0.585083       -15.9209
  69   2.0000      -0.568609       -15.4726
  70   2.0000      -0.568159       -15.4604
  71   2.0000      -0.566153       -15.4058
  72   2.0000      -0.555775       -15.1234
  73   2.0000      -0.550708       -14.9855
  74   2.0000      -0.549107       -14.9420
  75   2.0000      -0.545959       -14.8563
  76   2.0000      -0.541977       -14.7479
  77   2.0000      -0.537585       -14.6284
  78   2.0000      -0.537074       -14.6145
  79   2.0000      -0.534444       -14.5430
  80   2.0000      -0.525248       -14.2927
  81   2.0000      -0.522737       -14.2244
  82   2.0000      -0.520661       -14.1679
  83   2.0000      -0.518503       -14.1092
  84   2.0000      -0.517868       -14.0919
  85   2.0000      -0.513525       -13.9737
  86   2.0000      -0.513115       -13.9626
  87   2.0000      -0.509485       -13.8638
  88   2.0000      -0.507566       -13.8116
  89   2.0000      -0.503927       -13.7126
  90   2.0000      -0.501600       -13.6492
  91   2.0000      -0.499737       -13.5985
  92   2.0000      -0.496017       -13.4973
  93   2.0000      -0.494077       -13.4445
  94   2.0000      -0.492480       -13.4011
  95   2.0000      -0.477862       -13.0033
  96   2.0000      -0.475332       -12.9344
  97   2.0000      -0.473011       -12.8713
  98   2.0000      -0.469645       -12.7797
  99   2.0000      -0.462237       -12.5781
 100   2.0000      -0.460686       -12.5359
 101   2.0000      -0.459931       -12.5153
 102   2.0000      -0.454668       -12.3721
 103   2.0000      -0.450247       -12.2518
 104   2.0000      -0.449461       -12.2304
 105   2.0000      -0.445892       -12.1333
 106   2.0000      -0.444803       -12.1037
 107   2.0000      -0.443592       -12.0708
 108   2.0000      -0.441945       -12.0259
 109   2.0000      -0.404957       -11.0194
 110   2.0000      -0.398897       -10.8545
 111   2.0000      -0.397229       -10.8091
 112   2.0000      -0.396008       -10.7759
 113   2.0000      -0.386201       -10.5091
 114   2.0000      -0.344870        -9.3844
 115   2.0000      -0.270803        -7.3689
 116   2.0000      -0.263242        -7.1632
 117   2.0000      -0.252969        -6.8836
 118   0.0000       0.016811         0.4574
 119   0.0000       0.046134         1.2554
 120   0.0000       0.047951         1.3048
 121   0.0000       0.052653         1.4328
 122   0.0000       0.056399         1.5347

MULLIKEN ATOMIC CHARGES
-----------------------
   0 W :   -1.838588
   1 C :    0.625819
   2 O :   -0.395285
   3 C :    1.059088
   4 O :   -0.481973
   5 C :    0.651033
   6 O :   -0.406788
   7 P :   -0.411193
   8 C :    0.493740
   9 H :    0.284884
  10 C :    0.767704
  11 H :    0.104846
  12 C :    0.786226
  13 H :    0.156588
  14 C :    1.048494
  15 P :   -0.710437
  16 H :    0.345203
  17 H :    0.245836
  18 C :    0.734413
  19 H :    0.303678
  20 C :   -0.469773
  21 H :    0.127521
  22 H :    0.010438
  23 H :   -0.044102
  24 C :   -0.507781
  25 H :   -0.011210
  26 H :    0.136126
  27 H :    0.062505
  28 C :   -0.598904
  29 H :    0.092898
  30 H :    0.126109
  31 H :    0.027695
  32 C :   -0.355122
  33 H :    0.125140
  34 H :   -0.062320
  35 H :   -0.006160
  36 C :   -0.482203
  37 H :    0.063820
  38 H :    0.111734
  39 H :   -0.054883
  40 C :   -0.375866
  41 H :   -0.147079
  42 H :    0.115526
  43 H :    0.081965
  44 C :   -0.650810
  45 H :    0.096955
  46 H :    0.073194
  47 H :    0.114691
  48 C :   -0.310672
  49 H :   -0.027196
  50 C :   -0.421311
  51 H :   -0.024205
  52 H :    0.119895
  53 C :   -0.546998
  54 H :   -0.322909
  55 H :    0.078635
  56 H :    0.063174
  57 C :    0.821488
  58 H :    0.127939
  59 H :    0.064749
  60 H :    0.020567
  61 C :   -0.431759
  62 H :   -0.035493
  63 H :    0.148308
  64 H :    0.040576
  65 C :   -0.473472
  66 H :    0.006219
  67 H :   -0.003401
  68 H :    0.142474
Sum of atomic charges:    0.0000000

LOEWDIN ATOMIC CHARGES
----------------------
   0 W :    0.272756
   1 C :   -0.271013
   2 O :    0.057829
   3 C :   -0.386353
   4 O :    0.015419
   5 C :   -0.263388
   6 O :    0.056206
   7 P :    1.057677
   8 C :   -0.372076
   9 H :   -0.028213
  10 C :   -0.352990
  11 H :   -0.037004
  12 C :   -0.352167
  13 H :   -0.032380
  14 C :   -0.357044
  15 P :    1.052742
  16 H :   -0.003484
  17 H :   -0.025150
  18 C :   -0.354836
  19 H :   -0.013039
  20 C :    0.123977
  21 H :   -0.001640
  22 H :   -0.020293
  23 H :   -0.040119
  24 C :    0.126662
  25 H :   -0.026654
  26 H :   -0.002439
  27 H :   -0.027553
  28 C :    0.124548
  29 H :   -0.024827
  30 H :   -0.003140
  31 H :   -0.023353
  32 C :    0.123359
  33 H :   -0.001061
  34 H :   -0.048365
  35 H :   -0.021235
  36 C :    0.117505
  37 H :   -0.018659
  38 H :   -0.004999
  39 H :   -0.034379
  40 C :    0.118074
  41 H :   -0.036540
  42 H :   -0.004317
  43 H :   -0.019778
  44 C :    0.113276
  45 H :   -0.019006
  46 H :   -0.014666
  47 H :   -0.003561
  48 C :    0.124443
  49 H :   -0.022596
  50 C :    0.069034
  51 H :   -0.040563
  52 H :   -0.002729
  53 C :    0.117633
  54 H :   -0.074268
  55 H :    0.011592
  56 H :   -0.032498
  57 C :   -0.338916
  58 H :   -0.002952
  59 H :   -0.020412
  60 H :   -0.021613
  61 C :    0.114306
  62 H :   -0.038327
  63 H :   -0.002746
  64 H :   -0.023198
  65 C :    0.123984
  66 H :   -0.018168
  67 H :   -0.031035
  68 H :   -0.005285

  Mayer bond orders larger than 0.100000
B(  0-W ,  1-C ) :   1.2460 B(  0-W ,  3-C ) :   1.7130 B(  0-W ,  4-O ) :   0.1186
B(  0-W ,  5-C ) :   0.7640 B(  0-W ,  7-P ) :  -0.1722 B(  0-W , 10-C ) :   0.1600
B(  0-W , 14-C ) :   0.1090 B(  0-W , 15-P ) :   0.3721 B(  0-W , 16-H ) :   0.1278
B(  0-W , 18-C ) :   0.2422 B(  0-W , 19-H ) :  -0.1275 B(  0-W , 24-C ) :   0.1428
B(  0-W , 50-C ) :   0.1647 B(  0-W , 54-H ) :   0.1690 B(  1-C ,  2-O ) :   1.9755
B(  1-C ,  5-C ) :   0.5398 B(  1-C ,  7-P ) :   0.4313 B(  1-C , 15-P ) :   0.2290
B(  1-C , 50-C ) :   0.1189 B(  1-C , 54-H ) :  -0.1188 B(  3-C ,  4-O ) :   1.8851
B(  3-C ,  5-C ) :   0.2219 B(  3-C , 15-P ) :   0.1895 B(  5-C ,  6-O ) :   2.0391
B(  5-C ,  7-P ) :   0.3769 B(  5-C , 14-C ) :  -0.1249 B(  5-C , 15-P ) :   0.1510
B(  7-P ,  8-C ) :   1.0888 B(  7-P , 10-C ) :   0.7224 B(  7-P , 12-C ) :   0.8083
B(  7-P , 15-P ) :  -0.2212 B(  7-P , 24-C ) :   0.1704 B(  7-P , 28-C ) :   0.1937
B(  7-P , 40-C ) :   0.1155 B(  8-C ,  9-H ) :   0.7694 B(  8-C , 10-C ) :   0.3251
B(  8-C , 12-C ) :   0.3322 B(  8-C , 36-C ) :   0.8211 B(  8-C , 39-H ) :  -0.1005
B(  8-C , 40-C ) :   0.8720 B( 10-C , 11-H ) :   0.8524 B( 10-C , 12-C ) :   0.2982
B( 10-C , 20-C ) :   0.7541 B( 10-C , 24-C ) :   0.6462 B( 10-C , 25-H ) :  -0.1016
B( 10-C , 40-C ) :   0.1610 B( 12-C , 13-H ) :   0.8073 B( 12-C , 28-C ) :   0.6647
B( 12-C , 31-H ) :  -0.1008 B( 12-C , 32-C ) :   0.8026 B( 12-C , 36-C ) :   0.1972
B( 14-C , 15-P ) :   0.2529 B( 14-C , 17-H ) :   0.8065 B( 14-C , 18-C ) :   0.2596
B( 14-C , 44-C ) :   0.6178 B( 14-C , 48-C ) :   0.7486 B( 14-C , 57-C ) :   0.2442
B( 14-C , 61-C ) :   0.1131 B( 15-P , 16-H ) :  -0.2132 B( 15-P , 18-C ) :   0.8775
B( 15-P , 44-C ) :   0.2354 B( 15-P , 48-C ) :   0.1336 B( 15-P , 50-C ) :   0.4914
B( 15-P , 53-C ) :   0.1098 B( 15-P , 57-C ) :   0.7694 B( 15-P , 61-C ) :   0.2024
B( 15-P , 62-H ) :   0.1204 B( 15-P , 65-C ) :   0.2981 B( 16-H , 57-C ) :   0.7770
B( 18-C , 19-H ) :   0.6942 B( 18-C , 57-C ) :   0.2483 B( 18-C , 61-C ) :   0.5875
B( 18-C , 62-H ) :  -0.1086 B( 18-C , 65-C ) :   0.7384 B( 20-C , 21-H ) :   0.9594
B( 20-C , 22-H ) :   1.0428 B( 20-C , 23-H ) :   0.9399 B( 20-C , 24-C ) :   0.1727
B( 22-H , 23-H ) :   0.1100 B( 24-C , 25-H ) :   1.0325 B( 24-C , 26-H ) :   1.0100
B( 24-C , 27-H ) :   0.9232 B( 28-C , 29-H ) :   0.9127 B( 28-C , 30-H ) :   1.0138
B( 28-C , 31-H ) :   1.0495 B( 28-C , 32-C ) :   0.1562 B( 32-C , 33-H ) :   0.9595
B( 32-C , 34-H ) :   0.8944 B( 32-C , 35-H ) :   1.0072 B( 34-H , 35-H ) :   0.1227
B( 36-C , 37-H ) :   0.9199 B( 36-C , 38-H ) :   0.9816 B( 36-C , 39-H ) :   0.9791
B( 37-H , 39-H ) :   0.1093 B( 40-C , 41-H ) :   1.0008 B( 40-C , 42-H ) :   0.9512
B( 40-C , 43-H ) :   0.8778 B( 41-H , 42-H ) :   0.1007 B( 41-H , 43-H ) :   0.1314
B( 44-C , 45-H ) :   0.9529 B( 44-C , 46-H ) :   1.0735 B( 44-C , 47-H ) :   1.0115
B( 44-C , 48-C ) :   0.1129 B( 48-C , 49-H ) :   0.9964 B( 48-C , 51-H ) :   0.9556
B( 48-C , 52-H ) :   0.9810 B( 49-H , 51-H ) :   0.1050 B( 50-C , 53-C ) :   0.2062
B( 50-C , 54-H ) :   1.3757 B( 50-C , 55-H ) :   0.8330 B( 50-C , 56-H ) :   0.9329
B( 50-C , 57-C ) :   0.7987 B( 53-C , 57-C ) :   0.6548 B( 53-C , 58-H ) :   0.9646
B( 53-C , 59-H ) :   1.0207 B( 53-C , 60-H ) :   1.0181 B( 54-H , 56-H ) :   0.1300
B( 61-C , 62-H ) :   1.0211 B( 61-C , 63-H ) :   0.9609 B( 61-C , 64-H ) :   0.9901
B( 61-C , 65-C ) :   0.1587 B( 62-H , 64-H ) :   0.1090 B( 65-C , 66-H ) :   1.0266
B( 65-C , 67-H ) :   0.9433 B( 65-C , 68-H ) :   0.9596 B( 66-H , 67-H ) :   0.1203

FINAL SINGLE POINT ENERGY     -1801.154668857042

DIPOLE MOMENT
-------------
                                X             Y             Z
Electronic contribution:     17.80156      16.07884     -19.95351
Nuclear contribution   :    -17.42159     -16.73751      21.91193
                        -----------------------------------------
Total Dipole Moment    :      0.37996      -0.65866       1.95841
                        -----------------------------------------
Magnitude (a.u.)       :      2.10086
Magnitude (Debye)      :      5.33995

Rotational constants in cm-1:     0.007992     0.003859     0.003786
Rotational constants in MHz :   239.602072   115.683770   113.510152

                             ****ORCA TERMINATED NORMALLY****
TOTAL RUN TIME: 0 days 2 hours 42 minutes 9 seconds 436 msec
