                         Program Version 4.2.0 -  RELEASE  -
|  1> #
|  2> # MOR02_bz wB97X-V/Def2-TZVPPD
|  3> #
|  4> ! wb97x-v def2-tzvppd def2/jk grid4 nofinalgrid
|  5>
|  6> *xyz 0 1
|  7> C        1.391947    0.103893   -0.000005
|  8> C        0.785946   -1.153510   -0.000002
|  9> C       -0.605997   -1.257403   -0.000005
| 10> C       -1.391947   -0.103892   -0.000002
| 11> C       -0.785947    1.153509   -0.000006
| 12> C        0.605998    1.257403   -0.000002
| 13> H        2.475503    0.184769    0.000018
| 14> H        1.397775   -2.051448    0.000027
| 15> H       -1.077745   -2.236217    0.000018
| 16> H       -2.475502   -0.184774    0.000031
| 17> H       -1.397773    2.051449    0.000014
| 18> H        1.077742    2.236219    0.000031
| 19> *
| 20>
| 21> %maxcore 5000
| 22>
| 23> %pal
| 24> nprocs = 24
| 25> end
| 26>
| 27>
| 28>                          ****END OF INPUT****

CARTESIAN COORDINATES (ANGSTROEM)
---------------------------------
  C      1.391947    0.103893   -0.000005
  C      0.785946   -1.153510   -0.000002
  C     -0.605997   -1.257403   -0.000005
  C     -1.391947   -0.103892   -0.000002
  C     -0.785947    1.153509   -0.000006
  C      0.605998    1.257403   -0.000002
  H      2.475503    0.184769    0.000018
  H      1.397775   -2.051448    0.000027
  H     -1.077745   -2.236217    0.000018
  H     -2.475502   -0.184774    0.000031
  H     -1.397773    2.051449    0.000014
  H      1.077742    2.236219    0.000031

 Total Charge           Charge          ....    0
 Multiplicity           Mult            ....    1
 Number of Electrons    NEL             ....   42
 Basis Dimension        Dim             ....  324

ORBITAL ENERGIES
----------------

  NO   OCC          E(Eh)            E(eV)
   0   2.0000     -10.278931      -279.7039
   1   2.0000     -10.278697      -279.6976
   2   2.0000     -10.278697      -279.6976
   3   2.0000     -10.278141      -279.6824
   4   2.0000     -10.278141      -279.6824
   5   2.0000     -10.277894      -279.6757
   6   2.0000      -0.992959       -27.0198
   7   2.0000      -0.880139       -23.9498
   8   2.0000      -0.880138       -23.9498
   9   2.0000      -0.727705       -19.8019
  10   2.0000      -0.727703       -19.8018
  11   2.0000      -0.644693       -17.5430
  12   2.0000      -0.577259       -15.7080
  13   2.0000      -0.558972       -15.2104
  14   2.0000      -0.532574       -14.4921
  15   2.0000      -0.532573       -14.4921
  16   2.0000      -0.487016       -13.2524
  17   2.0000      -0.448482       -12.2038
  18   2.0000      -0.448479       -12.2037
  19   2.0000      -0.349355        -9.5064
  20   2.0000      -0.349355        -9.5064
  21   0.0000       0.064316         1.7501
  22   0.0000       0.064472         1.7544
  23   0.0000       0.064473         1.7544
  24   0.0000       0.080380         2.1872
  25   0.0000       0.080383         2.1873

MULLIKEN ATOMIC CHARGES
-----------------------
   0 C :    0.001540
   1 C :    0.002631
   2 C :   -0.000365
   3 C :    0.002014
   4 C :    0.001309
   5 C :    0.000667
   6 H :   -0.001337
   7 H :   -0.001380
   8 H :   -0.001247
   9 H :   -0.001125
  10 H :   -0.001448
  11 H :   -0.001258
Sum of atomic charges:    0.0000000

LOEWDIN ATOMIC CHARGES
----------------------
   0 C :    0.001057
   1 C :    0.001051
   2 C :    0.001048
   3 C :    0.001056
   4 C :    0.001051
   5 C :    0.001049
   6 H :   -0.001051
   7 H :   -0.001051
   8 H :   -0.001053
   9 H :   -0.001051
  10 H :   -0.001052
  11 H :   -0.001053

  Mayer bond orders larger than 0.100000
B(  0-C ,  1-C ) :   1.2315 B(  0-C ,  5-C ) :   1.2323 B(  0-C ,  6-H ) :   1.0952
B(  1-C ,  2-C ) :   1.2341 B(  1-C ,  7-H ) :   1.0952 B(  2-C ,  3-C ) :   1.2312
B(  2-C ,  8-H ) :   1.0954 B(  3-C ,  4-C ) :   1.2318 B(  3-C ,  9-H ) :   1.0950
B(  4-C ,  5-C ) :   1.2337 B(  4-C , 10-H ) :   1.0952 B(  5-C , 11-H ) :   1.0952

FINAL SINGLE POINT ENERGY      -232.261658143441

DIPOLE MOMENT
-------------
                                X             Y             Z
Electronic contribution:     -0.00000       0.00000      -0.00010
Nuclear contribution   :      0.00000      -0.00000       0.00014
                        -----------------------------------------
Total Dipole Moment    :     -0.00000      -0.00000       0.00004
                        -----------------------------------------
Magnitude (a.u.)       :      0.00004
Magnitude (Debye)      :      0.00010

Rotational constants in cm-1:     0.189759     0.189757     0.094879
Rotational constants in MHz :  5688.823776  5688.770067  2844.398461

                             ****ORCA TERMINATED NORMALLY****
TOTAL RUN TIME: 0 days 0 hours 0 minutes 30 seconds 568 msec
