                         Program Version 4.2.0 -  RELEASE  -
|  1> #
|  2> # MOR05_co wB97X-V/Def2-TZVPPD
|  3> #
|  4> ! wb97x-v def2-tzvppd def2/jk grid4 nofinalgrid
|  5>
|  6> *xyz 0 1
|  7> O        0.000000    0.000000    0.486237
|  8> C        0.000000    0.000000   -0.648315
|  9> *
| 10>
| 11> %maxcore 5000
| 12>
| 13> %pal
| 14> nprocs = 24
| 15> end
| 16>
| 17>
| 18>                          ****END OF INPUT****

CARTESIAN COORDINATES (ANGSTROEM)
---------------------------------
  O      0.000000    0.000000    0.486237
  C      0.000000    0.000000   -0.648315

 Total Charge           Charge          ....    0
 Multiplicity           Mult            ....    1
 Number of Electrons    NEL             ....   14
 Basis Dimension        Dim             ....   77

ORBITAL ENERGIES
----------------

  NO   OCC          E(Eh)            E(eV)
   0   2.0000     -19.323996      -525.8327
   1   2.0000     -10.394345      -282.8445
   2   2.0000      -1.296176       -35.2707
   3   2.0000      -0.699683       -19.0393
   4   2.0000      -0.591595       -16.0981
   5   2.0000      -0.591595       -16.0981
   6   2.0000      -0.496978       -13.5235
   7   0.0000       0.057847         1.5741
   8   0.0000       0.057847         1.5741
   9   0.0000       0.072224         1.9653
  10   0.0000       0.112895         3.0720
  11   0.0000       0.112895         3.0720

MULLIKEN ATOMIC CHARGES
-----------------------
   0 O :   -0.080392
   1 C :    0.080392
Sum of atomic charges:   -0.0000000

LOEWDIN ATOMIC CHARGES
----------------------
   0 O :    0.009531
   1 C :   -0.009531

  Mayer bond orders larger than 0.100000
B(  0-O ,  1-C ) :   2.4150

FINAL SINGLE POINT ENERGY      -113.325840967479

DIPOLE MOMENT
-------------
                                X             Y             Z
Electronic contribution:      0.00000       0.00000       0.01436
Nuclear contribution   :      0.00000       0.00000       0.00720
                        -----------------------------------------
Total Dipole Moment    :      0.00000       0.00000       0.02156
                        -----------------------------------------
Magnitude (a.u.)       :      0.02156
Magnitude (Debye)      :      0.05480

Rotational constants in cm-1:     0.000000     1.908926     1.908926
Rotational constants in MHz :     0.000000 57228.174924 57228.174924

                             ****ORCA TERMINATED NORMALLY****
TOTAL RUN TIME: 0 days 0 hours 0 minutes 3 seconds 504 msec
