                         Program Version 4.2.0 -  RELEASE  -
|  1> #
|  2> # MOR06_cod wB97X-V/Def2-TZVPPD
|  3> #
|  4> ! wb97x-v def2-tzvppd def2/jk grid4 nofinalgrid
|  5>
|  6> *xyz 0 1
|  7> C        1.191389    1.227675   -0.516531
|  8> C        0.040474   -1.675611   -0.245785
|  9> C       -0.040358    1.675615   -0.245809
| 10> H        1.773340    1.813957   -1.228847
| 11> C       -1.191236   -1.227682   -0.516688
| 12> H        0.358706   -2.571437   -0.779467
| 13> H       -0.358419    2.571431   -0.779611
| 14> H       -1.772889   -1.813647   -1.229501
| 15> C       -1.080136    1.086431    0.676864
| 16> H       -1.767105    1.885380    0.980109
| 17> H       -0.630813    0.710792    1.597907
| 18> C        1.924335    0.021333    0.009175
| 19> H        2.698129    0.353800    0.719005
| 20> H        2.474959   -0.423127   -0.831863
| 21> C        1.079920   -1.086274    0.677130
| 22> H        0.630295   -0.710168    1.597840
| 23> H        1.766727   -1.885140    0.980948
| 24> C       -1.924342   -0.021538    0.009255
| 25> H       -2.697754   -0.354225    0.719400
| 26> H       -2.475456    0.422687   -0.831583
| 27> *
| 28>
| 29> %maxcore 5000
| 30>
| 31> %pal
| 32> nprocs = 24
| 33> end
| 34>
| 35>
| 36>                          ****END OF INPUT****

CARTESIAN COORDINATES (ANGSTROEM)
---------------------------------
  C      1.191389    1.227675   -0.516531
  C      0.040474   -1.675611   -0.245785
  C     -0.040358    1.675615   -0.245809
  H      1.773340    1.813957   -1.228847
  C     -1.191236   -1.227682   -0.516688
  H      0.358706   -2.571437   -0.779467
  H     -0.358419    2.571431   -0.779611
  H     -1.772889   -1.813647   -1.229501
  C     -1.080136    1.086431    0.676864
  H     -1.767105    1.885380    0.980109
  H     -0.630813    0.710792    1.597907
  C      1.924335    0.021333    0.009175
  H      2.698129    0.353800    0.719005
  H      2.474959   -0.423127   -0.831863
  C      1.079920   -1.086274    0.677130
  H      0.630295   -0.710168    1.597840
  H      1.766727   -1.885140    0.980948
  C     -1.924342   -0.021538    0.009255
  H     -2.697754   -0.354225    0.719400
  H     -2.475456    0.422687   -0.831583

 Total Charge           Charge          ....    0
 Multiplicity           Mult            ....    1
 Number of Electrons    NEL             ....   60
 Basis Dimension        Dim             ....  500

ORBITAL ENERGIES
----------------

  NO   OCC          E(Eh)            E(eV)
   0   2.0000     -10.274381      -279.5801
   1   2.0000     -10.274380      -279.5801
   2   2.0000     -10.270617      -279.4777
   3   2.0000     -10.270610      -279.4775
   4   2.0000     -10.266731      -279.3720
   5   2.0000     -10.266725      -279.3718
   6   2.0000     -10.264365      -279.3076
   7   2.0000     -10.264359      -279.3074
   8   2.0000      -0.963455       -26.2169
   9   2.0000      -0.909873       -24.7589
  10   2.0000      -0.903577       -24.5876
  11   2.0000      -0.817548       -22.2466
  12   2.0000      -0.800327       -21.7780
  13   2.0000      -0.720183       -19.5972
  14   2.0000      -0.658228       -17.9113
  15   2.0000      -0.638546       -17.3757
  16   2.0000      -0.596377       -16.2283
  17   2.0000      -0.565714       -15.3939
  18   2.0000      -0.553350       -15.0574
  19   2.0000      -0.546513       -14.8714
  20   2.0000      -0.526742       -14.3334
  21   2.0000      -0.512921       -13.9573
  22   2.0000      -0.478508       -13.0209
  23   2.0000      -0.477208       -12.9855
  24   2.0000      -0.464905       -12.6507
  25   2.0000      -0.436600       -11.8805
  26   2.0000      -0.421057       -11.4576
  27   2.0000      -0.410799       -11.1784
  28   2.0000      -0.342141        -9.3101
  29   2.0000      -0.338564        -9.2128
  30   0.0000       0.061993         1.6869
  31   0.0000       0.071717         1.9515
  32   0.0000       0.080685         2.1955
  33   0.0000       0.081011         2.2044
  34   0.0000       0.087877         2.3912

MULLIKEN ATOMIC CHARGES
-----------------------
   0 C :   -0.253713
   1 C :   -0.150333
   2 C :   -0.149648
   3 H :   -0.024393
   4 C :   -0.252817
   5 H :   -0.021641
   6 H :   -0.021727
   7 H :   -0.024463
   8 C :    0.210710
   9 H :    0.034995
  10 H :    0.024576
  11 C :    0.078483
  12 H :    0.045160
  13 H :    0.055565
  14 C :    0.210609
  15 H :    0.024444
  16 H :    0.034984
  17 C :    0.078316
  18 H :    0.045149
  19 H :    0.055745
Sum of atomic charges:    0.0000000

LOEWDIN ATOMIC CHARGES
----------------------
   0 C :    0.005427
   1 C :    0.009945
   2 C :    0.009971
   3 H :   -0.003943
   4 C :    0.005431
   5 H :   -0.002769
   6 H :   -0.002783
   7 H :   -0.003947
   8 C :   -0.027495
   9 H :    0.011209
  10 H :   -0.004418
  11 C :   -0.021839
  12 H :    0.017757
  13 H :    0.016107
  14 C :   -0.027478
  15 H :   -0.004412
  16 H :    0.011212
  17 C :   -0.021834
  18 H :    0.017765
  19 H :    0.016094

  Mayer bond orders larger than 0.100000
B(  0-C ,  2-C ) :   1.3738 B(  0-C ,  3-H ) :   1.1246 B(  0-C , 11-C ) :   1.0333
B(  1-C ,  4-C ) :   1.3744 B(  1-C ,  5-H ) :   1.0899 B(  1-C , 11-C ) :   0.2145
B(  1-C , 14-C ) :   0.8996 B(  1-C , 17-C ) :  -0.1499 B(  2-C ,  6-H ) :   1.0898
B(  2-C ,  8-C ) :   0.9001 B(  2-C , 11-C ) :  -0.1500 B(  2-C , 17-C ) :   0.2142
B(  4-C ,  7-H ) :   1.1246 B(  4-C , 17-C ) :   1.0329 B(  8-C ,  9-H ) :   1.0133
B(  8-C , 10-H ) :   0.9623 B(  8-C , 14-C ) :   0.2358 B(  8-C , 17-C ) :   0.7777
B( 11-C , 12-H ) :   0.9474 B( 11-C , 13-H ) :   0.9517 B( 11-C , 14-C ) :   0.7778
B( 14-C , 15-H ) :   0.9626 B( 14-C , 16-H ) :   1.0133 B( 17-C , 18-H ) :   0.9475
B( 17-C , 19-H ) :   0.9517

FINAL SINGLE POINT ENERGY      -312.059908147636

DIPOLE MOMENT
-------------
                                X             Y             Z
Electronic contribution:      0.00031      -0.00032      -0.85547
Nuclear contribution   :     -0.00029       0.00032       0.95237
                        -----------------------------------------
Total Dipole Moment    :      0.00002       0.00000       0.09690
                        -----------------------------------------
Magnitude (a.u.)       :      0.09690
Magnitude (Debye)      :      0.24631

Rotational constants in cm-1:     0.087291     0.074989     0.047810
Rotational constants in MHz :  2616.931187  2248.128417  1433.302108

                             ****ORCA TERMINATED NORMALLY****
TOTAL RUN TIME: 0 days 0 hours 1 minutes 28 seconds 435 msec
