                         Program Version 4.2.0 -  RELEASE  -
|  1> #
|  2> # MOR01_accl wB97X-V/Def2-TZVPPD
|  3> #
|  4> ! wb97x-v def2-tzvppd def2/jk grid4 nofinalgrid
|  5>
|  6> *xyz 0 1
|  7> C        1.306659   -1.017500   -0.000028
|  8> C        0.488515    0.240833   -0.000079
|  9> H        2.367301   -0.760167   -0.001300
| 10> H        1.052624   -1.613812   -0.881062
| 11> H        1.054555   -1.612076    0.882774
| 12> O        0.865971    1.367720    0.000018
| 13> Cl      -1.304312   -0.135041    0.000005
| 14> *
| 15>
| 16> %maxcore 5000
| 17>
| 18> %pal
| 19> nprocs = 24
| 20> end
| 21>
| 22>
| 23>                          ****END OF INPUT****

CARTESIAN COORDINATES (ANGSTROEM)
---------------------------------
  C      1.306659   -1.017500   -0.000028
  C      0.488515    0.240833   -0.000079
  H      2.367301   -0.760167   -0.001300
  H      1.052624   -1.613812   -0.881062
  H      1.054555   -1.612076    0.882774
  O      0.865971    1.367720    0.000018
  Cl    -1.304312   -0.135041    0.000005

 Total Charge           Charge          ....    0
 Multiplicity           Mult            ....    1
 Number of Electrons    NEL             ....   40
 Basis Dimension        Dim             ....  216

ORBITAL ENERGIES
----------------

  NO   OCC          E(Eh)            E(eV)
   0   2.0000    -101.526363     -2762.6728
   1   2.0000     -19.256286      -523.9902
   2   2.0000     -10.441746      -284.1343
   3   2.0000     -10.313276      -280.6385
   4   2.0000      -9.566197      -260.3095
   5   2.0000      -7.320311      -199.1958
   6   2.0000      -7.312971      -198.9961
   7   2.0000      -7.311888      -198.9666
   8   2.0000      -1.234893       -33.6031
   9   2.0000      -0.985046       -26.8045
  10   2.0000      -0.904138       -24.6028
  11   2.0000      -0.690348       -18.7853
  12   2.0000      -0.616281       -16.7698
  13   2.0000      -0.600520       -16.3410
  14   2.0000      -0.597329       -16.2541
  15   2.0000      -0.536511       -14.5992
  16   2.0000      -0.516118       -14.0443
  17   2.0000      -0.435474       -11.8499
  18   2.0000      -0.432754       -11.7758
  19   2.0000      -0.408543       -11.1170
  20   0.0000       0.038649         1.0517
  21   0.0000       0.048452         1.3185
  22   0.0000       0.070047         1.9061
  23   0.0000       0.079641         2.1671
  24   0.0000       0.087785         2.3887

MULLIKEN ATOMIC CHARGES
-----------------------
   0 C :   -0.164149
   1 C :    0.560975
   2 H :    0.054448
   3 H :    0.090894
   4 H :    0.090760
   5 O :   -0.352969
   6 Cl:   -0.279959
Sum of atomic charges:   -0.0000000

LOEWDIN ATOMIC CHARGES
----------------------
   0 C :    0.127225
   1 C :   -0.747682
   2 H :   -0.000126
   3 H :   -0.004187
   4 H :   -0.004095
   5 O :    0.067458
   6 Cl:    0.561406

  Mayer bond orders larger than 0.100000
B(  0-C ,  1-C ) :   0.9237 B(  0-C ,  2-H ) :   0.9973 B(  0-C ,  3-H ) :   0.9659
B(  0-C ,  4-H ) :   0.9658 B(  1-C ,  5-O ) :   2.0311 B(  1-C ,  6-Cl) :   0.7840
B(  5-O ,  6-Cl) :   0.1279

FINAL SINGLE POINT ENERGY      -613.409591425003

DIPOLE MOMENT
-------------
                                X             Y             Z
Electronic contribution:     -5.49856       2.62832      -0.00034
Nuclear contribution   :      6.08095      -3.60915       0.00039
                        -----------------------------------------
Total Dipole Moment    :      0.58239      -0.98083       0.00005
                        -----------------------------------------
Magnitude (a.u.)       :      1.14070
Magnitude (Debye)      :      2.89944

Rotational constants in cm-1:     0.334975     0.160198     0.110601
Rotational constants in MHz : 10042.310181  4802.622935  3315.727154

                             ****ORCA TERMINATED NORMALLY****
TOTAL RUN TIME: 0 days 0 hours 0 minutes 9 seconds 899 msec
