                         Program Version 4.2.0 -  RELEASE  -
|  1> #
|  2> # MOR07_ed01 wB97X-V/Def2-TZVPPD
|  3> #
|  4> ! wb97x-v def2-tzvppd def2/jk grid4 nofinalgrid
|  5>
|  6> *xyz 0 1
|  7> Cr      -0.000046    0.000041   -0.405569
|  8> O       -2.277907    2.043130   -0.317819
|  9> C       -1.422280    1.275470   -0.391359
| 10> C       -0.000325   -0.000192    1.429559
| 11> O       -0.000571   -0.000422    2.587655
| 12> C        1.422359   -1.275089   -0.391211
| 13> O        2.278285   -2.042429   -0.317709
| 14> C        1.275390    1.422211   -0.390822
| 15> O        2.043071    2.277781   -0.316760
| 16> C       -1.275267   -1.422351   -0.391135
| 17> O       -2.042647   -2.278220   -0.317434
| 18> *
| 19>
| 20> %maxcore 5000
| 21>
| 22> %pal
| 23> nprocs = 24
| 24> end
| 25>
| 26>
| 27>                          ****END OF INPUT****

CARTESIAN COORDINATES (ANGSTROEM)
---------------------------------
  Cr    -0.000046    0.000041   -0.405569
  O     -2.277907    2.043130   -0.317819
  C     -1.422280    1.275470   -0.391359
  C     -0.000325   -0.000192    1.429559
  O     -0.000571   -0.000422    2.587655
  C      1.422359   -1.275089   -0.391211
  O      2.278285   -2.042429   -0.317709
  C      1.275390    1.422211   -0.390822
  O      2.043071    2.277781   -0.316760
  C     -1.275267   -1.422351   -0.391135
  O     -2.042647   -2.278220   -0.317434

 Total Charge           Charge          ....    0
 Multiplicity           Mult            ....    1
 Number of Electrons    NEL             ....   94
 Basis Dimension        Dim             ....  452

ORBITAL ENERGIES
----------------

  NO   OCC          E(Eh)            E(eV)
   0   2.0000    -215.671511     -5868.7202
   1   2.0000     -24.806454      -675.0179
   2   2.0000     -21.090694      -573.9070
   3   2.0000     -21.090693      -573.9069
   4   2.0000     -21.090028      -573.8888
   5   2.0000     -19.314071      -525.5626
   6   2.0000     -19.314059      -525.5623
   7   2.0000     -19.314056      -525.5622
   8   2.0000     -19.314052      -525.5621
   9   2.0000     -19.285430      -524.7832
  10   2.0000     -10.411886      -283.3218
  11   2.0000     -10.411877      -283.3216
  12   2.0000     -10.411873      -283.3215
  13   2.0000     -10.411872      -283.3214
  14   2.0000     -10.392475      -282.7936
  15   2.0000      -3.007834       -81.8473
  16   2.0000      -1.954683       -53.1896
  17   2.0000      -1.954681       -53.1896
  18   2.0000      -1.953898       -53.1683
  19   2.0000      -1.283930       -34.9375
  20   2.0000      -1.283246       -34.9189
  21   2.0000      -1.283239       -34.9187
  22   2.0000      -1.282756       -34.9056
  23   2.0000      -1.256107       -34.1804
  24   2.0000      -0.741828       -20.1862
  25   2.0000      -0.702100       -19.1051
  26   2.0000      -0.702095       -19.1050
  27   2.0000      -0.697416       -18.9777
  28   2.0000      -0.682883       -18.5822
  29   2.0000      -0.621807       -16.9202
  30   2.0000      -0.607411       -16.5285
  31   2.0000      -0.600765       -16.3477
  32   2.0000      -0.600762       -16.3476
  33   2.0000      -0.595165       -16.1953
  34   2.0000      -0.593042       -16.1375
  35   2.0000      -0.593038       -16.1374
  36   2.0000      -0.583588       -15.8802
  37   2.0000      -0.576291       -15.6817
  38   2.0000      -0.565151       -15.3785
  39   2.0000      -0.565150       -15.3785
  40   2.0000      -0.563325       -15.3288
  41   2.0000      -0.537295       -14.6206
  42   2.0000      -0.529916       -14.4198
  43   2.0000      -0.529907       -14.4195
  44   2.0000      -0.339679        -9.2431
  45   2.0000      -0.336513        -9.1570
  46   2.0000      -0.336510        -9.1569
  47   0.0000      -0.047715        -1.2984
  48   0.0000       0.034039         0.9262
  49   0.0000       0.034047         0.9265
  50   0.0000       0.038547         1.0489
  51   0.0000       0.048701         1.3252

MULLIKEN ATOMIC CHARGES
-----------------------
   0 Cr:   -0.554066
   1 O :   -0.208988
   2 C :    0.330395
   3 C :    0.314040
   4 O :   -0.245196
   5 C :    0.330238
   6 O :   -0.208996
   7 C :    0.330192
   8 O :   -0.208983
   9 C :    0.330361
  10 O :   -0.208996
Sum of atomic charges:   -0.0000000

LOEWDIN ATOMIC CHARGES
----------------------
   0 Cr:   -0.282861
   1 O :    0.147985
   2 C :   -0.070224
   3 C :   -0.162763
   4 O :    0.134758
   5 C :   -0.070284
   6 O :    0.147986
   7 C :   -0.070289
   8 O :    0.147981
   9 C :   -0.070269
  10 O :    0.147981

  Mayer bond orders larger than 0.100000
B(  0-Cr,  2-C ) :   0.9913 B(  0-Cr,  3-C ) :   1.3613 B(  0-Cr,  4-O ) :   0.1168
B(  0-Cr,  5-C ) :   0.9917 B(  0-Cr,  7-C ) :   0.9915 B(  0-Cr,  9-C ) :   0.9918
B(  1-O ,  2-C ) :   2.2633 B(  3-C ,  4-O ) :   2.1277 B(  5-C ,  6-O ) :   2.2632
B(  7-C ,  8-O ) :   2.2633 B(  9-C , 10-O ) :   2.2633

FINAL SINGLE POINT ENERGY     -1611.090921084985

DIPOLE MOMENT
-------------
                                X             Y             Z
Electronic contribution:     -0.00033       0.00033      -2.45515
Nuclear contribution   :      0.00017      -0.00015       1.50310
                        -----------------------------------------
Total Dipole Moment    :     -0.00016       0.00017      -0.95205
                        -----------------------------------------
Magnitude (a.u.)       :      0.95205
Magnitude (Debye)      :      2.41992

Rotational constants in cm-1:     0.031146     0.031144     0.021766
Rotational constants in MHz :   933.731625   933.679962   652.524637

                             ****ORCA TERMINATED NORMALLY****
TOTAL RUN TIME: 0 days 0 hours 1 minutes 59 seconds 471 msec
