                         Program Version 4.2.0 -  RELEASE  -
|  1> #
|  2> # MOR03_c2h4 wB97X-V/Def2-TZVPPD
|  3> #
|  4> ! wb97x-v def2-tzvppd def2/jk grid4 nofinalgrid
|  5>
|  6> *xyz 0 1
|  7> C        0.000000    0.665348   -0.000001
|  8> C        0.000000   -0.665348   -0.000001
|  9> H       -0.924311    1.237390    0.000003
| 10> H        0.924311    1.237390    0.000003
| 11> H        0.924311   -1.237390    0.000003
| 12> H       -0.924311   -1.237390    0.000003
| 13> *
| 14>
| 15> %maxcore 5000
| 16>
| 17> %pal
| 18> nprocs = 24
| 19> end
| 20>
| 21>
| 22>                          ****END OF INPUT****

CARTESIAN COORDINATES (ANGSTROEM)
---------------------------------
  C      0.000000    0.665348   -0.000001
  C      0.000000   -0.665348   -0.000001
  H     -0.924311    1.237390    0.000003
  H      0.924311    1.237390    0.000003
  H      0.924311   -1.237390    0.000003
  H     -0.924311   -1.237390    0.000003

 Total Charge           Charge          ....    0
 Multiplicity           Mult            ....    1
 Number of Electrons    NEL             ....   16
 Basis Dimension        Dim             ....  142

ORBITAL ENERGIES
----------------

  NO   OCC          E(Eh)            E(eV)
   0   2.0000     -10.274002      -279.5698
   1   2.0000     -10.273114      -279.5457
   2   2.0000      -0.896448       -24.3936
   3   2.0000      -0.704674       -19.1751
   4   2.0000      -0.586027       -15.9466
   5   2.0000      -0.532452       -14.4887
   6   2.0000      -0.462184       -12.5767
   7   2.0000      -0.380450       -10.3526
   8   0.0000       0.073178         1.9913
   9   0.0000       0.080201         2.1824
  10   0.0000       0.084930         2.3111
  11   0.0000       0.125172         3.4061
  12   0.0000       0.164417         4.4740

MULLIKEN ATOMIC CHARGES
-----------------------
   0 C :   -0.075388
   1 C :   -0.075292
   2 H :    0.037668
   3 H :    0.037655
   4 H :    0.037682
   5 H :    0.037675
Sum of atomic charges:    0.0000000

LOEWDIN ATOMIC CHARGES
----------------------
   0 C :    0.098286
   1 C :    0.098286
   2 H :   -0.049143
   3 H :   -0.049143
   4 H :   -0.049143
   5 H :   -0.049143

  Mayer bond orders larger than 0.100000
B(  0-C ,  1-C ) :   1.8237 B(  0-C ,  2-H ) :   1.0214 B(  0-C ,  3-H ) :   1.0214
B(  1-C ,  4-H ) :   1.0214 B(  1-C ,  5-H ) :   1.0214

FINAL SINGLE POINT ENERGY       -78.590059793481

DIPOLE MOMENT
-------------
                                X             Y             Z
Electronic contribution:     -0.00000       0.00000      -0.00001
Nuclear contribution   :      0.00000       0.00000       0.00001
                        -----------------------------------------
Total Dipole Moment    :     -0.00000       0.00000       0.00000
                        -----------------------------------------
Magnitude (a.u.)       :      0.00000
Magnitude (Debye)      :      0.00001

Rotational constants in cm-1:     4.893731     1.002967     0.832372
Rotational constants in MHz : 146710.378489 30068.182911 24953.899728

                             ****ORCA TERMINATED NORMALLY****
TOTAL RUN TIME: 0 days 0 hours 0 minutes 4 seconds 772 msec
