                         Program Version 4.2.0 -  RELEASE  -
|  1> #
|  2> # MOR08_ed05 wB97X-V/Def2-TZVPPD
|  3> #
|  4> ! wb97x-v def2-tzvppd def2/jk grid4 nofinalgrid
|  5>
|  6> *xyz 0 1
|  7> Mn      -0.000015    0.000034   -0.156112
|  8> O       -2.966556    0.069032   -0.568565
|  9> C       -1.835048    0.042703   -0.376221
| 10> C        0.000106   -0.000266    1.691489
| 11> O        0.000196   -0.000501    2.842648
| 12> C        1.835004   -0.042558   -0.376374
| 13> O        2.966501   -0.068795   -0.568793
| 14> C        0.042608    1.834986   -0.376689
| 15> O        0.068875    2.966413   -0.569532
| 16> C       -0.042655   -1.834886   -0.377054
| 17> O       -0.068962   -2.966280   -0.570073
| 18> H       -0.000145    0.000318   -1.733571
| 19> *
| 20>
| 21> %maxcore 5000
| 22>
| 23> %pal
| 24> nprocs = 24
| 25> end
| 26>
| 27>
| 28>                          ****END OF INPUT****

CARTESIAN COORDINATES (ANGSTROEM)
---------------------------------
  Mn    -0.000015    0.000034   -0.156112
  O     -2.966556    0.069032   -0.568565
  C     -1.835048    0.042703   -0.376221
  C      0.000106   -0.000266    1.691489
  O      0.000196   -0.000501    2.842648
  C      1.835004   -0.042558   -0.376374
  O      2.966501   -0.068795   -0.568793
  C      0.042608    1.834986   -0.376689
  O      0.068875    2.966413   -0.569532
  C     -0.042655   -1.834886   -0.377054
  O     -0.068962   -2.966280   -0.570073
  H     -0.000145    0.000318   -1.733571

 Total Charge           Charge          ....    0
 Multiplicity           Mult            ....    1
 Number of Electrons    NEL             ....   96
 Basis Dimension        Dim             ....  469

ORBITAL ENERGIES
----------------

  NO   OCC          E(Eh)            E(eV)
   0   2.0000    -235.416277     -6406.0026
   1   2.0000     -27.424485      -746.2582
   2   2.0000     -23.495325      -639.3403
   3   2.0000     -23.495323      -639.3403
   4   2.0000     -23.490216      -639.2013
   5   2.0000     -19.319009      -525.6970
   6   2.0000     -19.319008      -525.6969
   7   2.0000     -19.318997      -525.6966
   8   2.0000     -19.318994      -525.6965
   9   2.0000     -19.311548      -525.4939
  10   2.0000     -10.423238      -283.6307
  11   2.0000     -10.423233      -283.6306
  12   2.0000     -10.423230      -283.6305
  13   2.0000     -10.423226      -283.6304
  14   2.0000     -10.415334      -283.4156
  15   2.0000      -3.304334       -89.9155
  16   2.0000      -2.168081       -58.9965
  17   2.0000      -2.168078       -58.9964
  18   2.0000      -2.156401       -58.6787
  19   2.0000      -1.291882       -35.1539
  20   2.0000      -1.290987       -35.1295
  21   2.0000      -1.290975       -35.1292
  22   2.0000      -1.290280       -35.1103
  23   2.0000      -1.282486       -34.8982
  24   2.0000      -0.759041       -20.6545
  25   2.0000      -0.708089       -19.2681
  26   2.0000      -0.708081       -19.2679
  27   2.0000      -0.701781       -19.0964
  28   2.0000      -0.701756       -19.0958
  29   2.0000      -0.638519       -17.3750
  30   2.0000      -0.619192       -16.8491
  31   2.0000      -0.606799       -16.5118
  32   2.0000      -0.606797       -16.5118
  33   2.0000      -0.606100       -16.4928
  34   2.0000      -0.604455       -16.4481
  35   2.0000      -0.604443       -16.4477
  36   2.0000      -0.589825       -16.0499
  37   2.0000      -0.583040       -15.8653
  38   2.0000      -0.583038       -15.8653
  39   2.0000      -0.581053       -15.8113
  40   2.0000      -0.576176       -15.6785
  41   2.0000      -0.566750       -15.4220
  42   2.0000      -0.542092       -14.7511
  43   2.0000      -0.542082       -14.7508
  44   2.0000      -0.415281       -11.3004
  45   2.0000      -0.381723       -10.3872
  46   2.0000      -0.371303       -10.1037
  47   2.0000      -0.371289       -10.1033
  48   0.0000       0.036518         0.9937
  49   0.0000       0.037481         1.0199
  50   0.0000       0.037489         1.0201
  51   0.0000       0.053529         1.4566
  52   0.0000       0.054844         1.4924

MULLIKEN ATOMIC CHARGES
-----------------------
   0 Mn:    0.244934
   1 O :   -0.204552
   2 C :    0.226220
   3 C :   -0.028284
   4 O :   -0.223872
   5 C :    0.226565
   6 O :   -0.204542
   7 C :    0.225565
   8 O :   -0.204564
   9 C :    0.225313
  10 O :   -0.204560
  11 H :   -0.078222
Sum of atomic charges:   -0.0000000

LOEWDIN ATOMIC CHARGES
----------------------
   0 Mn:   -0.508400
   1 O :    0.170570
   2 C :   -0.087992
   3 C :   -0.063893
   4 O :    0.153577
   5 C :   -0.087988
   6 O :    0.170572
   7 C :   -0.088021
   8 O :    0.170551
   9 C :   -0.088007
  10 O :    0.170555
  11 H :    0.088476

  Mayer bond orders larger than 0.100000
B(  0-Mn,  2-C ) :   0.8301 B(  0-Mn,  3-C ) :   0.8634 B(  0-Mn,  5-C ) :   0.8304
B(  0-Mn,  7-C ) :   0.8306 B(  0-Mn,  9-C ) :   0.8305 B(  0-Mn, 11-H ) :   0.7473
B(  1-O ,  2-C ) :   2.2426 B(  3-C ,  4-O ) :   2.1878 B(  5-C ,  6-O ) :   2.2425
B(  7-C ,  8-O ) :   2.2425 B(  9-C , 10-O ) :   2.2425

FINAL SINGLE POINT ENERGY     -1718.236059213068

DIPOLE MOMENT
-------------
                                X             Y             Z
Electronic contribution:      0.00008      -0.00017       1.00144
Nuclear contribution   :     -0.00006       0.00014      -0.87929
                        -----------------------------------------
Total Dipole Moment    :      0.00002      -0.00004       0.12215
                        -----------------------------------------
Magnitude (a.u.)       :      0.12215
Magnitude (Debye)      :      0.31049

Rotational constants in cm-1:     0.030200     0.030198     0.023242
Rotational constants in MHz :   905.379927   905.310991   696.775514

                             ****ORCA TERMINATED NORMALLY****
TOTAL RUN TIME: 0 days 0 hours 2 minutes 12 seconds 227 msec
