                         Program Version 4.2.0 -  RELEASE  -
|  1> #
|  2> # MOR04_c2h6 wB97X-V/Def2-TZVPPD
|  3> #
|  4> ! wb97x-v def2-tzvppd def2/jk grid4 nofinalgrid
|  5>
|  6> *xyz 0 1
|  7> C       -0.765850   -0.000004    0.000000
|  8> C        0.765850    0.000004    0.000000
|  9> H       -1.162381   -1.020936   -0.022850
| 10> H       -1.162409    0.530251   -0.872720
| 11> H       -1.162411    0.490675    0.895568
| 12> H        1.162410   -0.530239    0.872727
| 13> H        1.162411   -0.490686   -0.895561
| 14> H        1.162381    1.020936    0.022836
| 15> *
| 16>
| 17> %maxcore 5000
| 18>
| 19> %pal
| 20> nprocs = 24
| 21> end
| 22>
| 23>
| 24>                          ****END OF INPUT****

CARTESIAN COORDINATES (ANGSTROEM)
---------------------------------
  C     -0.765850   -0.000004    0.000000
  C      0.765850    0.000004    0.000000
  H     -1.162381   -1.020936   -0.022850
  H     -1.162409    0.530251   -0.872720
  H     -1.162411    0.490675    0.895568
  H      1.162410   -0.530239    0.872727
  H      1.162411   -0.490686   -0.895561
  H      1.162381    1.020936    0.022836

 Total Charge           Charge          ....    0
 Multiplicity           Mult            ....    1
 Number of Electrons    NEL             ....   18
 Basis Dimension        Dim             ....  176

ORBITAL ENERGIES
----------------

  NO   OCC          E(Eh)            E(eV)
   0   2.0000     -10.259325      -279.1704
   1   2.0000     -10.259144      -279.1655
   2   2.0000      -0.885644       -24.0996
   3   2.0000      -0.741542       -20.1784
   4   2.0000      -0.547190       -14.8898
   5   2.0000      -0.547186       -14.8897
   6   2.0000      -0.473285       -12.8787
   7   2.0000      -0.447835       -12.1862
   8   2.0000      -0.447831       -12.1861
   9   0.0000       0.068130         1.8539
  10   0.0000       0.088354         2.4042
  11   0.0000       0.134415         3.6576
  12   0.0000       0.134418         3.6577
  13   0.0000       0.157781         4.2934

MULLIKEN ATOMIC CHARGES
-----------------------
   0 C :   -0.153777
   1 C :   -0.153776
   2 H :    0.051277
   3 H :    0.051186
   4 H :    0.051307
   5 H :    0.051183
   6 H :    0.051308
   7 H :    0.051292
Sum of atomic charges:    0.0000000

LOEWDIN ATOMIC CHARGES
----------------------
   0 C :    0.076234
   1 C :    0.076234
   2 H :   -0.025415
   3 H :   -0.025410
   4 H :   -0.025409
   5 H :   -0.025410
   6 H :   -0.025409
   7 H :   -0.025415

  Mayer bond orders larger than 0.100000
B(  0-C ,  1-C ) :   0.8290 B(  0-C ,  2-H ) :   1.0118 B(  0-C ,  3-H ) :   1.0118
B(  0-C ,  4-H ) :   1.0117 B(  1-C ,  5-H ) :   1.0118 B(  1-C ,  6-H ) :   1.0117
B(  1-C ,  7-H ) :   1.0118

FINAL SINGLE POINT ENERGY       -79.831228814037

DIPOLE MOMENT
-------------
                                X             Y             Z
Electronic contribution:     -0.00000      -0.00000      -0.00000
Nuclear contribution   :      0.00000       0.00000      -0.00000
                        -----------------------------------------
Total Dipole Moment    :      0.00000       0.00000      -0.00000
                        -----------------------------------------
Magnitude (a.u.)       :      0.00000
Magnitude (Debye)      :      0.00000

Rotational constants in cm-1:     2.672873     0.663298     0.663297
Rotational constants in MHz : 80130.723455 19885.185427 19885.132514

                             ****ORCA TERMINATED NORMALLY****
TOTAL RUN TIME: 0 days 0 hours 0 minutes 5 seconds 72 msec
