                         Program Version 4.2.0 -  RELEASE  -
|  1> # input to generate an atomic fitting density for Rh
|  2> # this file is use internally by ORCA
|  3> #
|  4> # atomic ground state (S=4): 1s2 2s2 2p6 3s2 3p6 4s2 3d10 4p6 5s2 4d7
|  5> #
|  6> ! RHF AllowRHF def2-SVP def2/J  NoMulliken NoLoewdin NoMayer NoPrintMOs
|  7>
|  8> %output print[p_atomdensfit] 2 end
|  9>
| 10> %scf
| 11>   guess hcore
| 12>   maxiter 1000
| 13>   maxdisk 500000
| 14>   SCFMode Conventional
| 15>   lshift 1.000000
| 16>   hftyp rohf
| 17>   rohf_case sahf
| 18>   rohf_numop   2
| 19>   rohf_norb[1] 5
| 20>   rohf_nel[1]  7
| 21> end
| 22>
| 23> %basis
| 24>   NewECP 45
| 25>     N_core 28
| 26>     lmax f
| 27>     s 4
| 28>       1      11.7200000000    225.3477535000  2
| 29>       2       5.8200000000     32.8231890000  2
| 30>       3      12.3100000000     30.0934557000  2
| 31>       4       6.1600000000      5.2184819000  2
| 32>     p 4
| 33>       1      10.4200000000    158.7094116000  2
| 34>       2       5.4500000000     26.4441005000  2
| 35>       3      12.3100000000     30.0934557000  2
| 36>       4       6.1600000000      5.2184819000  2
| 37>     d 4
| 38>       1       8.8200000000     62.7586257000  2
| 39>       2       3.8700000000     10.9787195000  2
| 40>       3      12.3100000000     30.0934557000  2
| 41>       4       6.1600000000      5.2184819000  2
| 42>     f 2
| 43>       1      12.3100000000    -30.0934557000  2
| 44>       2       6.1600000000     -5.2184819000  2
| 45>   end
| 46>   NewGTO 45
| 47>     s 2
| 48>      1      17.0000000000     -0.9383793180
| 49>      2      13.9105816940      1.9247376672
| 50>     s 1
| 51>      1       5.2481265288      1.0000000000
| 52>     s 1
| 53>      1       1.2262575928      1.0000000000
| 54>     s 1
| 55>      1       0.5393021635      1.0000000000
| 56>     s 1
| 57>      1       0.1013073038      1.0000000000
| 58>     s 1
| 59>      1       0.0371241390      1.0000000000
| 60>     p 4
| 61>      1      11.7671036310      0.0676935579
| 62>      2       6.7485133083     -0.2700677651
| 63>      3       1.7502679834      0.5577445140
| 64>      4       0.8432116613      0.5760017293
| 65>     p 1
| 66>      1       0.3829554476      1.0000000000
| 67>     p 1
| 68>      1       0.1150000000      1.0000000000
| 69>     p 1
| 70>      1       0.0370000000      1.0000000000
| 71>     d 4
| 72>      1      19.8578301360      0.0068204289
| 73>      2      10.0613781390     -0.0223899551
| 74>      3       2.2619546477      0.3862288430
| 75>      4       0.9709884504      0.6853960058
| 76>     d 1
| 77>      1       0.3839119530      1.0000000000
| 78>     d 1
| 79>      1       0.1353702690      1.0000000000
| 80>   end
| 81>   NewAuxGTO 45
| 82>     S 1
| 83>      1 1310.72 1.0
| 84>     S 1
| 85>      1  655.36 1.0
| 86>     S 1
| 87>      1  327.68 1.0
| 88>     S 1
| 89>      1  163.84 1.0
| 90>     S 1
| 91>      1   81.82 1.0
| 92>     S 1
| 93>      1   40.96 1.0
| 94>     S 1
| 95>      1   20.48 1.0
| 96>     S 1
| 97>      1   10.24 1.0
| 98>     S 1
| 99>      1    5.12 1.0
|100>     S 1
|101>      1    2.56 1.0
|102>     S 1
|103>      1    1.28 1.0
|104>     S 1
|105>      1    0.64 1.0
|106>     S 1
|107>      1    0.32 1.0
|108>     S 1
|109>      1    0.16 1.0
|110>     S 1
|111>      1    0.08 1.0
|112>     S 1
|113>      1    0.04 1.0
|114>     S 1
|115>      1    0.02 1.0
|116>     S 1
|117>      1    0.01 1.0
|118>   end
|119> end
|120>
|121> * xyz 0 4
|122> 45  0.0 0.0 0.0
|123> *
|124>
|125>
|126>                          ****END OF INPUT****

CARTESIAN COORDINATES (ANGSTROEM)
---------------------------------
  Rh     0.000000    0.000000    0.000000

 Total Charge           Charge          ....    0
 Multiplicity           Mult            ....    4
 Number of Electrons    NEL             ....   17
 Basis Dimension        Dim             ....   33

ORBITAL ENERGIES
----------------

  NO   OCC          E(Eh)            E(eV)
   0   2.0000      -3.821435      -103.9865
   1   2.0000      -2.428850       -66.0924
   2   2.0000      -2.423232       -65.9395
   3   2.0000      -2.421453       -65.8911
   4   2.0000      -0.453163       -12.3312
   5   1.4000      -0.489583       -13.3222
   6   1.4000      -0.485724       -13.2172
   7   1.4000      -0.480913       -13.0863
   8   1.4000      -0.465667       -12.6715
   9   1.4000      -0.255096        -6.9415
  10   0.0000       0.004654         0.1267
  11   0.0000       0.007616         0.2072
  12   0.0000       0.008536         0.2323
  13   0.0000       0.127419         3.4672
  14   0.0000       0.205955         5.6043

CleanUpVectors: The p-vectors have cracked symmetry
CleanUpVectors: The p-vectors have cracked symmetry
CleanUpVectors: The p-vectors have cracked symmetry
CleanUpVectors: The d-vectors have cracked symmetry at i=4
CleanUpVectors: The d-vectors have cracked symmetry at i=5
CleanUpVectors: The d-vectors have cracked symmetry at i=6
CleanUpVectors: The d-vectors have cracked symmetry at i=7
CleanUpVectors: The d-vectors have cracked symmetry at i=8
CleanUpVectors: The p-vectors have cracked symmetry
CleanUpVectors: The p-vectors have cracked symmetry
CleanUpVectors: The p-vectors have cracked symmetry
CleanUpVectors: The p-vectors have cracked symmetry
CleanUpVectors: The p-vectors have cracked symmetry
CleanUpVectors: The p-vectors have cracked symmetry
CleanUpVectors: The d-vectors have cracked symmetry at i=17
CleanUpVectors: The d-vectors have cracked symmetry at i=18
CleanUpVectors: The d-vectors have cracked symmetry at i=19
CleanUpVectors: The d-vectors have cracked symmetry at i=20
CleanUpVectors: The d-vectors have cracked symmetry at i=21
CleanUpVectors: The p-vectors have cracked symmetry
CleanUpVectors: The p-vectors have cracked symmetry
CleanUpVectors: The p-vectors have cracked symmetry
CleanUpVectors: The d-vectors have cracked symmetry at i=25
CleanUpVectors: The d-vectors have cracked symmetry at i=26
CleanUpVectors: The d-vectors have cracked symmetry at i=27
CleanUpVectors: The d-vectors have cracked symmetry at i=28
--------------------------
ATOM BASIS FOR ELEMENT Rh
--------------------------
 NewGTO Rh
 S 7
    1         17.000000000000        -0.166853828912
    2         13.910581694000         0.342238840160
    3          5.248126528800        -0.676850108121
    4          1.226257592800         0.887935540046
    5          0.539302163500         0.417736174767
    6          0.101307303800         0.010764029649
    7          0.037124139000        -0.000432066951
 P 20
    1         11.767103631000        -0.034776408003
    2          6.748513308300         0.138742696925
    3          1.750267983400        -0.286531708214
    4          0.843211661300        -0.295911040427
    5         11.767103631000        -0.044340321025
    6          6.748513308300         0.176898537681
    7          1.750267983400        -0.365331230440
    8          0.843211661300        -0.377289987115
    9         11.767103631000        -0.017688996588
   10          6.748513308300         0.070571379665
   11          1.750267983400        -0.145744161059
   12          0.843211661300        -0.150514952094
   13          0.382955447600        -0.095544687611
   14          0.382955447600        -0.121820577920
   15          0.382955447600        -0.048598741223
   16          0.115000000000        -0.004306694911
   17          0.115000000000        -0.005491085650
   18          0.115000000000        -0.002190597476
   19          0.037000000000         0.000237626460
   20          0.037000000000         0.000302976475
 D 20
    1         17.000000000000        -0.000005047897
    2         13.910581694000         0.000012653400
    3          5.248126528800        -0.000070800582
    4          1.226257592800         0.000644919690
    5          0.539302163500        -0.000375474633
    6          0.101307303800        -0.004437569361
    7          0.037124139000         0.010842382175
    8         19.857830136000        -0.001366930839
    9         10.061378139000         0.004487330719
   10          2.261954647700        -0.077406879283
   11          0.970988450400        -0.137365105801
   12         19.857830136000        -0.000447723244
   13         10.061378139000         0.001469776091
   14          2.261954647700        -0.025353776575
   15          0.970988450400        -0.044992437804
   16         19.857830136000         0.003054196372
   17         10.061378139000        -0.010026249176
   18          2.261954647700         0.172953746515
   19          0.970988450400         0.306921166552
   20         19.857830136000         0.000122726465
 D 20
    1         19.857830136000        -0.001765418786
    2         10.061378139000         0.005795478251
    3          2.261954647700        -0.099972547928
    4          0.970988450400        -0.177409808411
    5         19.857830136000         0.000247810181
    6         10.061378139000        -0.000813505853
    7          2.261954647700         0.014033052893
    8          0.970988450400         0.024902848600
    9         19.857830136000        -0.002393352081
   10         10.061378139000         0.007856843964
   11          2.261954647700        -0.135531301438
   12          0.970988450400        -0.240511847704
   13         19.857830136000         0.002926601944
   14         10.061378139000        -0.009607384973
   15          2.261954647700         0.165728299409
   16          0.970988450400         0.294098994732
   17         19.857830136000        -0.001603447472
   18         10.061378139000         0.005263762358
   19          2.261954647700        -0.090800398503
   20          0.970988450400        -0.161133047381
 P 20
    1         11.767103631000        -0.009350743748
    2          6.748513308300         0.037305388347
    3          1.750267983400        -0.077043166132
    4          0.843211661300        -0.079565098013
    5         11.767103631000        -0.011922306052
    6          6.748513308300         0.047564800112
    7          1.750267983400        -0.098230924792
    8          0.843211661300        -0.101446417007
    9         11.767103631000        -0.004756249531
   10          6.748513308300         0.018975360743
   11          1.750267983400        -0.039187954741
   12          0.843211661300        -0.040470733699
   13          0.382955447600        -0.159756614203
   14          0.382955447600        -0.203691524410
   15          0.382955447600        -0.081260094584
   16          0.115000000000         0.945184093186
   17          0.115000000000         1.205120612691
   18          0.115000000000         0.480767254584
   19          0.037000000000        -0.610078145611
   20          0.037000000000        -0.777856667213
 D 20
    1         17.000000000000         0.000015651637
    2         13.910581694000        -0.000039233451
    3          5.248126528800         0.000220306733
    4          1.226257592800        -0.002131126682
    5          0.539302163500         0.000750655932
    6          0.101307303800         0.027242194775
    7          0.037124139000        -0.013347028996
    8         19.857830136000        -0.000028564203
    9         10.061378139000         0.000093769941
   10          2.261954647700        -0.001617540358
   11          0.970988450400        -0.002870463251
   12         19.857830136000         0.001215601377
   13         10.061378139000        -0.003990549662
   14          2.261954647700         0.068837359071
   15          0.970988450400         0.122157761680
   16         19.857830136000         0.000628997272
   17         10.061378139000        -0.002064858514
   18          2.261954647700         0.035619004642
   19          0.970988450400         0.063208960062
   20         19.857830136000         0.000667781068
 P 20
    1         11.767103631000        -0.053637857102
    2          6.748513308300         0.213991650633
    3          1.750267983400        -0.441936004980
    4          0.843211661300        -0.456402343221
    5         11.767103631000        -0.068388886017
    6          6.748513308300         0.272841820953
    7          1.750267983400        -0.563473499956
    8          0.843211661300        -0.581918247948
    9         11.767103631000        -0.027282860012
   10          6.748513308300         0.108846709460
   11          1.750267983400        -0.224790452299
   12          0.843211661300        -0.232148745536
   13          0.382955447600         1.275119089351
   14          0.382955447600         1.625791535519
   15          0.382955447600         0.648588468921
   16          0.115000000000        -0.762342588809
   17          0.115000000000        -0.971995587238
   18          0.115000000000        -0.387765046103
   19          0.037000000000         0.264700778855
   20          0.037000000000         0.337496543892
 D 20
    1         17.000000000000        -0.000391155365
    2         13.910581694000         0.000980496481
    3          5.248126528800        -0.005377415869
    4          1.226257592800         0.079863253923
    5          0.539302163500        -0.188106933449
    6          0.101307303800         0.452077352061
    7          0.037124139000        -0.527767917453
    8         19.857830136000        -0.000044387242
    9         10.061378139000         0.000145713469
   10          2.261954647700        -0.002513571122
   11          0.970988450400        -0.004460546224
   12         19.857830136000         0.005662331214
   13         10.061378139000        -0.018588177297
   14          2.261954647700         0.320647816354
   15          0.970988450400         0.569016883593
   16         19.857830136000         0.002718389985
   17         10.061378139000        -0.008923871300
   18          2.261954647700         0.153937623891
   19          0.970988450400         0.273175435934
   20         19.857830136000         0.003086825351
 S 20
    1         17.000000000000        -0.239892624050
    2         13.910581694000         0.492050880423
    3          5.248126528800        -1.022557197148
    4          1.226257592800         3.518374858008
    5          0.539302163500        -3.588546240038
    6          0.101307303800         1.551507054327
    7          0.037124139000        -0.663050117835
    8         19.857830136000        -0.007325421226
    9         10.061378139000         0.012184278557
   10          2.261954647700        -0.047251730828
   11          0.970988450400        -0.035995213885
   12         19.857830136000        -0.051529303318
   13         10.061378139000         0.085708024992
   14          2.261954647700        -0.332383448692
   15          0.970988450400        -0.253201588974
   16         19.857830136000        -0.006300214856
   17         10.061378139000         0.010479066038
   18          2.261954647700        -0.040638762928
   19          0.970988450400        -0.030957616535
   20         19.857830136000        -0.026022458927
 S 20
    1         17.000000000000        -1.717112337240
    2         13.910581694000         3.522020073230
    3          5.248126528800        -3.292358845195
    4          1.226257592800         2.121943130495
    5          0.539302163500        -1.263475048318
    6          0.101307303800         0.359861602778
    7          0.037124139000        -0.153795571724
    8         19.857830136000        -0.000007473832
    9         10.061378139000         0.000012431129
   10          2.261954647700        -0.000048209039
   11          0.970988450400        -0.000036724468
   12         19.857830136000        -0.000066930399
   13         10.061378139000         0.000111324468
   14          2.261954647700        -0.000431726325
   15          0.970988450400        -0.000328878565
   16         19.857830136000        -0.000013051995
   17         10.061378139000         0.000021709214
   18          2.261954647700        -0.000084190290
   19          0.970988450400        -0.000064134106
   20         19.857830136000        -0.000034346345
 S 20
    1         17.000000000000        -1.910622424064
    2         13.910581694000         3.918934355065
    3          5.248126528800        -1.540488068607
    4          1.226257592800         0.698339980702
    5          0.539302163500        -0.397144594515
    6          0.101307303800         0.112001818969
    7          0.037124139000        -0.047986335067
    8         19.857830136000        -0.000000475178
    9         10.061378139000         0.000000790358
   10          2.261954647700        -0.000003065080
   11          0.970988450400        -0.000002334903
   12         19.857830136000        -0.000004232657
   13         10.061378139000         0.000007040123
   14          2.261954647700        -0.000027302232
   15          0.970988450400        -0.000020798173
   16         19.857830136000        -0.000000819355
   17         10.061378139000         0.000001362823
   18          2.261954647700        -0.000005285150
   19          0.970988450400        -0.000004026098
   20         19.857830136000        -0.000002171373
 end
  // -----------------------------------------------
  // The basis set
  // -----------------------------------------------
  BAS[ATNO] = new BFNGauss[NSH];
  // Basis function   1 L = s
  InitBFNGauss(BAS[ATNO][  0]);
  BAS[ATNO][  0].l  = 0;
  BAS[ATNO][  0].ng = 7;
  BAS[ATNO][  0].a[  0] =        17.000000000000;     BAS[ATNO][  0].d[  0] =        -0.166853828912;
  BAS[ATNO][  0].a[  1] =        13.910581694000;     BAS[ATNO][  0].d[  1] =         0.342238840160;
  BAS[ATNO][  0].a[  2] =         5.248126528800;     BAS[ATNO][  0].d[  2] =        -0.676850108121;
  BAS[ATNO][  0].a[  3] =         1.226257592800;     BAS[ATNO][  0].d[  3] =         0.887935540046;
  BAS[ATNO][  0].a[  4] =         0.539302163500;     BAS[ATNO][  0].d[  4] =         0.417736174767;
  BAS[ATNO][  0].a[  5] =         0.101307303800;     BAS[ATNO][  0].d[  5] =         0.010764029649;
  BAS[ATNO][  0].a[  6] =         0.037124139000;     BAS[ATNO][  0].d[  6] =        -0.000432066951;

FINAL SINGLE POINT ENERGY      -109.685678772321

DIPOLE MOMENT
-------------
                                X             Y             Z
Electronic contribution:      0.00000       0.00000       0.00000
Nuclear contribution   :      0.00000       0.00000       0.00000
                        -----------------------------------------
Total Dipole Moment    :      0.00000       0.00000       0.00000
                        -----------------------------------------
Magnitude (a.u.)       :      0.00000
Magnitude (Debye)      :      0.00000

Rotational constants in cm-1:     0.000000     0.000000     0.000000
Rotational constants in MHz :     0.000000     0.000000     0.000000

                             ****ORCA TERMINATED NORMALLY****
TOTAL RUN TIME: 0 days 0 hours 0 minutes 4 seconds 630 msec
