                         Program Version 4.2.0 -  RELEASE  -
|  1> #
|  2> # MOR13_ed24 wB97X-V/Def2-TZVPPD
|  3> #
|  4> ! wb97x-v def2-tzvppd def2/jk grid4 nofinalgrid
|  5>
|  6> *xyz 0 1
|  7> Ru       0.947158   -0.829727   -0.745491
|  8> Cl       0.759536   -0.029843   -2.889353
|  9> Cl       0.924249   -2.813196    0.406526
| 10> P       -0.892858    0.059346    0.070519
| 11> C        2.105770    0.298407    0.120511
| 12> C       -1.060848    0.304387    1.904454
| 13> C       -0.839571   -1.004781    2.681683
| 14> C       -1.204393   -0.821649    4.161076
| 15> C       -0.398097    0.318884    4.794081
| 16> C       -0.569062    1.619286    3.999752
| 17> C       -0.203235    1.422010    2.520494
| 18> C       -1.361193    1.675223   -0.723442
| 19> C       -0.190670    2.668218   -0.863157
| 20> C       -0.617010    3.874515   -1.709852
| 21> C       -1.846047    4.572418   -1.115292
| 22> C       -3.005112    3.584426   -0.940399
| 23> C       -2.585621    2.369196   -0.098214
| 24> C       -2.266825   -1.149912   -0.318948
| 25> C       -3.572387   -1.071522    0.495585
| 26> C       -4.464103   -2.278800    0.161919
| 27> C       -4.771803   -2.353480   -1.338652
| 28> C       -3.481398   -2.368379   -2.166970
| 29> C       -2.587234   -1.168835   -1.825450
| 30> H        1.784946    1.202955    0.645761
| 31> H       -2.115821    0.600966    2.014947
| 32> H        0.212402   -1.294098    2.586311
| 33> H       -1.418447   -1.824644    2.245913
| 34> H       -1.028300   -1.758851    4.701667
| 35> H       -2.278352   -0.600113    4.247046
| 36> H        0.665500    0.042496    4.804792
| 37> H       -0.699682    0.468438    5.837587
| 38> H        0.050942    2.415093    4.429614
| 39> H       -1.613622    1.955784    4.068877
| 40> H       -0.334942    2.362910    1.978268
| 41> H        0.854749    1.145201    2.447640
| 42> H       -1.618911    1.357234   -1.743817
| 43> H        0.662106    2.166051   -1.325328
| 44> H        0.125060    3.019280    0.127484
| 45> H       -0.846735    3.527698   -2.726710
| 46> H        0.219033    4.578695   -1.795316
| 47> H       -2.156025    5.410629   -1.750528
| 48> H       -1.583038    4.996180   -0.135073
| 49> H       -3.336384    3.234608   -1.928191
| 50> H       -3.864727    4.078543   -0.471441
| 51> H       -2.338056    2.702879    0.918040
| 52> H       -3.425897    1.674720   -0.010060
| 53> H       -1.782812   -2.105972   -0.070582
| 54> H       -4.113822   -0.149509    0.251918
| 55> H       -3.369403   -1.053503    1.570362
| 56> H       -5.393534   -2.221008    0.741223
| 57> H       -3.947864   -3.196972    0.475160
| 58> H       -5.374229   -1.479434   -1.625752
| 59> H       -5.376744   -3.241409   -1.557196
| 60> H       -3.714322   -2.363052   -3.238224
| 61> H       -2.925851   -3.294401   -1.964642
| 62> H       -1.666731   -1.193589   -2.417765
| 63> H       -3.111760   -0.241279   -2.093787
| 64> C        3.546496    0.126586    0.028364
| 65> C        4.389877    1.228237    0.286046
| 66> C        5.770146    1.113346    0.161104
| 67> C        6.339467   -0.106460   -0.212258
| 68> C        5.519417   -1.212931   -0.453677
| 69> C        4.139965   -1.102236   -0.332827
| 70> H        3.943201    2.177101    0.573360
| 71> H        6.405205    1.972855    0.357301
| 72> H        5.961339   -2.166857   -0.726887
| 73> H        3.508028   -1.975261   -0.480581
| 74> H        7.417884   -0.197821   -0.305099
| 75> *
| 76>
| 77> %maxcore 5000
| 78>
| 79> %pal
| 80> nprocs = 24
| 81> end
| 82>
| 83>
| 84>                          ****END OF INPUT****

CARTESIAN COORDINATES (ANGSTROEM)
---------------------------------
  Ru     0.947158   -0.829727   -0.745491
  Cl     0.759536   -0.029843   -2.889353
  Cl     0.924249   -2.813196    0.406526
  P     -0.892858    0.059346    0.070519
  C      2.105770    0.298407    0.120511
  C     -1.060848    0.304387    1.904454
  C     -0.839571   -1.004781    2.681683
  C     -1.204393   -0.821649    4.161076
  C     -0.398097    0.318884    4.794081
  C     -0.569062    1.619286    3.999752
  C     -0.203235    1.422010    2.520494
  C     -1.361193    1.675223   -0.723442
  C     -0.190670    2.668218   -0.863157
  C     -0.617010    3.874515   -1.709852
  C     -1.846047    4.572418   -1.115292
  C     -3.005112    3.584426   -0.940399
  C     -2.585621    2.369196   -0.098214
  C     -2.266825   -1.149912   -0.318948
  C     -3.572387   -1.071522    0.495585
  C     -4.464103   -2.278800    0.161919
  C     -4.771803   -2.353480   -1.338652
  C     -3.481398   -2.368379   -2.166970
  C     -2.587234   -1.168835   -1.825450
  H      1.784946    1.202955    0.645761
  H     -2.115821    0.600966    2.014947
  H      0.212402   -1.294098    2.586311
  H     -1.418447   -1.824644    2.245913
  H     -1.028300   -1.758851    4.701667
  H     -2.278352   -0.600113    4.247046
  H      0.665500    0.042496    4.804792
  H     -0.699682    0.468438    5.837587
  H      0.050942    2.415093    4.429614
  H     -1.613622    1.955784    4.068877
  H     -0.334942    2.362910    1.978268
  H      0.854749    1.145201    2.447640
  H     -1.618911    1.357234   -1.743817
  H      0.662106    2.166051   -1.325328
  H      0.125060    3.019280    0.127484
  H     -0.846735    3.527698   -2.726710
  H      0.219033    4.578695   -1.795316
  H     -2.156025    5.410629   -1.750528
  H     -1.583038    4.996180   -0.135073
  H     -3.336384    3.234608   -1.928191
  H     -3.864727    4.078543   -0.471441
  H     -2.338056    2.702879    0.918040
  H     -3.425897    1.674720   -0.010060
  H     -1.782812   -2.105972   -0.070582
  H     -4.113822   -0.149509    0.251918
  H     -3.369403   -1.053503    1.570362
  H     -5.393534   -2.221008    0.741223
  H     -3.947864   -3.196972    0.475160
  H     -5.374229   -1.479434   -1.625752
  H     -5.376744   -3.241409   -1.557196
  H     -3.714322   -2.363052   -3.238224
  H     -2.925851   -3.294401   -1.964642
  H     -1.666731   -1.193589   -2.417765
  H     -3.111760   -0.241279   -2.093787
  C      3.546496    0.126586    0.028364
  C      4.389877    1.228237    0.286046
  C      5.770146    1.113346    0.161104
  C      6.339467   -0.106460   -0.212258
  C      5.519417   -1.212931   -0.453677
  C      4.139965   -1.102236   -0.332827
  H      3.943201    2.177101    0.573360
  H      6.405205    1.972855    0.357301
  H      5.961339   -2.166857   -0.726887
  H      3.508028   -1.975261   -0.480581
  H      7.417884   -0.197821   -0.305099

 Total Charge           Charge          ....    0
 Multiplicity           Mult            ....    1
 Number of Electrons    NEL             ....  254
 Basis Dimension        Dim             .... 1794

ORBITAL ENERGIES
----------------

  NO   OCC          E(Eh)            E(eV)
   0   2.0000    -101.461821     -2760.9165
   1   2.0000    -101.460687     -2760.8857
   2   2.0000     -77.113836     -2098.3741
   3   2.0000     -10.308839      -280.5178
   4   2.0000     -10.295996      -280.1683
   5   2.0000     -10.294488      -280.1273
   6   2.0000     -10.292416      -280.0709
   7   2.0000     -10.292247      -280.0663
   8   2.0000     -10.289433      -279.9897
   9   2.0000     -10.288054      -279.9522
  10   2.0000     -10.286150      -279.9004
  11   2.0000     -10.285761      -279.8898
  12   2.0000     -10.284219      -279.8478
  13   2.0000     -10.283116      -279.8178
  14   2.0000     -10.282842      -279.8104
  15   2.0000     -10.281423      -279.7717
  16   2.0000     -10.276611      -279.6408
  17   2.0000     -10.275403      -279.6079
  18   2.0000     -10.273733      -279.5625
  19   2.0000     -10.273610      -279.5591
  20   2.0000     -10.271604      -279.5046
  21   2.0000     -10.271602      -279.5045
  22   2.0000     -10.271393      -279.4988
  23   2.0000     -10.271308      -279.4965
  24   2.0000     -10.271055      -279.4896
  25   2.0000     -10.269846      -279.4567
  26   2.0000     -10.268684      -279.4251
  27   2.0000     -10.268667      -279.4246
  28   2.0000      -9.501914      -258.5602
  29   2.0000      -9.500768      -258.5291
  30   2.0000      -7.253390      -197.3748
  31   2.0000      -7.252226      -197.3431
  32   2.0000      -7.249880      -197.2793
  33   2.0000      -7.249246      -197.2620
  34   2.0000      -7.248760      -197.2488
  35   2.0000      -7.248098      -197.2308
  36   2.0000      -6.692324      -182.1074
  37   2.0000      -4.845596      -131.8554
  38   2.0000      -4.845456      -131.8515
  39   2.0000      -4.843475      -131.7977
  40   2.0000      -3.152864       -85.7938
  41   2.0000      -2.004230       -54.5379
  42   2.0000      -2.001952       -54.4759
  43   2.0000      -1.987933       -54.0944
  44   2.0000      -1.005322       -27.3562
  45   2.0000      -0.993311       -27.0294
  46   2.0000      -0.978596       -26.6289
  47   2.0000      -0.977445       -26.5976
  48   2.0000      -0.915819       -24.9207
  49   2.0000      -0.912814       -24.8389
  50   2.0000      -0.890760       -24.2388
  51   2.0000      -0.889161       -24.1953
  52   2.0000      -0.888246       -24.1704
  53   2.0000      -0.884435       -24.0667
  54   2.0000      -0.883247       -24.0344
  55   2.0000      -0.880804       -23.9679
  56   2.0000      -0.878232       -23.8979
  57   2.0000      -0.877997       -23.8915
  58   2.0000      -0.800133       -21.7727
  59   2.0000      -0.793650       -21.5963
  60   2.0000      -0.753273       -20.4976
  61   2.0000      -0.746621       -20.3166
  62   2.0000      -0.743138       -20.2218
  63   2.0000      -0.739460       -20.1217
  64   2.0000      -0.738376       -20.0922
  65   2.0000      -0.734479       -19.9862
  66   2.0000      -0.705246       -19.1907
  67   2.0000      -0.694242       -18.8913
  68   2.0000      -0.692221       -18.8363
  69   2.0000      -0.690403       -18.7868
  70   2.0000      -0.666866       -18.1463
  71   2.0000      -0.636086       -17.3088
  72   2.0000      -0.610106       -16.6018
  73   2.0000      -0.604707       -16.4549
  74   2.0000      -0.594890       -16.1878
  75   2.0000      -0.589532       -16.0420
  76   2.0000      -0.574645       -15.6369
  77   2.0000      -0.568766       -15.4769
  78   2.0000      -0.567805       -15.4508
  79   2.0000      -0.566289       -15.4095
  80   2.0000      -0.563596       -15.3362
  81   2.0000      -0.559676       -15.2296
  82   2.0000      -0.558746       -15.2043
  83   2.0000      -0.553786       -15.0693
  84   2.0000      -0.549397       -14.9499
  85   2.0000      -0.540879       -14.7181
  86   2.0000      -0.535042       -14.5592
  87   2.0000      -0.533952       -14.5296
  88   2.0000      -0.509478       -13.8636
  89   2.0000      -0.506621       -13.7859
  90   2.0000      -0.500712       -13.6251
  91   2.0000      -0.497592       -13.5402
  92   2.0000      -0.496769       -13.5178
  93   2.0000      -0.496077       -13.4989
  94   2.0000      -0.493251       -13.4220
  95   2.0000      -0.483437       -13.1550
  96   2.0000      -0.481508       -13.1025
  97   2.0000      -0.474549       -12.9131
  98   2.0000      -0.469058       -12.7637
  99   2.0000      -0.465872       -12.6770
 100   2.0000      -0.463165       -12.6034
 101   2.0000      -0.460809       -12.5392
 102   2.0000      -0.459302       -12.4982
 103   2.0000      -0.456844       -12.4314
 104   2.0000      -0.455898       -12.4056
 105   2.0000      -0.451183       -12.2773
 106   2.0000      -0.447408       -12.1746
 107   2.0000      -0.443030       -12.0555
 108   2.0000      -0.439920       -11.9708
 109   2.0000      -0.434012       -11.8101
 110   2.0000      -0.432581       -11.7711
 111   2.0000      -0.428161       -11.6508
 112   2.0000      -0.426162       -11.5965
 113   2.0000      -0.415565       -11.3081
 114   2.0000      -0.411495       -11.1974
 115   2.0000      -0.410558       -11.1718
 116   2.0000      -0.402720       -10.9586
 117   2.0000      -0.397892       -10.8272
 118   2.0000      -0.392444       -10.6789
 119   2.0000      -0.391519       -10.6538
 120   2.0000      -0.387139       -10.5346
 121   2.0000      -0.382910       -10.4195
 122   2.0000      -0.372302       -10.1309
 123   2.0000      -0.357462        -9.7270
 124   2.0000      -0.333323        -9.0702
 125   2.0000      -0.312028        -8.4907
 126   2.0000      -0.300555        -8.1785
 127   0.0000      -0.007831        -0.2131
 128   0.0000       0.011295         0.3074
 129   0.0000       0.039061         1.0629
 130   0.0000       0.045061         1.2262
 131   0.0000       0.051954         1.4137

MULLIKEN ATOMIC CHARGES
-----------------------
   0 Ru:   -1.960015
   1 Cl:   -0.538572
   2 Cl:   -0.533984
   3 P :    0.570947
   4 C :    1.491944
   5 C :    0.146648
   6 C :   -0.136914
   7 C :   -0.226108
   8 C :   -0.198469
   9 C :   -0.265082
  10 C :    0.504257
  11 C :    0.198706
  12 C :    0.120624
  13 C :   -0.218793
  14 C :   -0.142923
  15 C :   -0.228516
  16 C :    0.574896
  17 C :    0.338032
  18 C :    0.514415
  19 C :   -0.169316
  20 C :   -0.227290
  21 C :   -0.189441
  22 C :   -0.109474
  23 H :   -0.048189
  24 H :    0.508101
  25 H :   -0.007996
  26 H :    0.050339
  27 H :    0.047081
  28 H :    0.085217
  29 H :    0.076229
  30 H :    0.078827
  31 H :    0.050870
  32 H :    0.107722
  33 H :   -0.318465
  34 H :    0.007121
  35 H :    0.535797
  36 H :   -0.254459
  37 H :    0.045412
  38 H :    0.073941
  39 H :    0.041976
  40 H :    0.063203
  41 H :    0.053573
  42 H :    0.091481
  43 H :    0.043115
  44 H :    0.058099
  45 H :   -0.536651
  46 H :    0.377792
  47 H :   -0.012697
  48 H :   -0.403027
  49 H :    0.039859
  50 H :    0.120184
  51 H :    0.080565
  52 H :    0.061670
  53 H :    0.032381
  54 H :    0.088764
  55 H :    0.003317
  56 H :    0.024161
  57 C :    0.230828
  58 C :   -0.277506
  59 C :   -0.138775
  60 C :    0.013958
  61 C :   -0.285113
  62 C :    0.174945
  63 H :   -0.090478
  64 H :   -0.027466
  65 H :   -0.041297
  66 H :   -0.142101
  67 H :    0.002118
Sum of atomic charges:   -0.0000000

LOEWDIN ATOMIC CHARGES
----------------------
   0 Ru:    0.376881
   1 Cl:   -0.028392
   2 Cl:   -0.027009
   3 P :    0.996375
   4 C :   -0.127783
   5 C :   -0.275879
   6 C :   -0.061543
   7 C :   -0.007342
   8 C :   -0.016736
   9 C :   -0.007057
  10 C :   -0.026341
  11 C :   -0.282465
  12 C :   -0.058448
  13 C :   -0.006264
  14 C :   -0.018274
  15 C :   -0.008201
  16 C :   -0.016004
  17 C :   -0.283594
  18 C :   -0.021247
  19 C :   -0.006981
  20 C :   -0.018491
  21 C :   -0.008157
  22 C :   -0.047473
  23 H :   -0.073381
  24 H :   -0.005433
  25 H :   -0.021956
  26 H :   -0.007864
  27 H :    0.017505
  28 H :    0.021312
  29 H :    0.023389
  30 H :    0.013457
  31 H :    0.016106
  32 H :    0.023017
  33 H :   -0.010057
  34 H :    0.005921
  35 H :   -0.022797
  36 H :   -0.053048
  37 H :    0.002188
  38 H :    0.025875
  39 H :    0.017031
  40 H :    0.013413
  41 H :    0.021044
  42 H :    0.023950
  43 H :    0.015413
  44 H :    0.015533
  45 H :   -0.007582
  46 H :   -0.041702
  47 H :    0.005679
  48 H :   -0.003027
  49 H :    0.015718
  50 H :    0.025285
  51 H :    0.020986
  52 H :    0.013509
  53 H :    0.016721
  54 H :    0.025510
  55 H :   -0.045721
  56 H :    0.019248
  57 C :   -0.237485
  58 C :    0.043493
  59 C :    0.015327
  60 C :    0.018502
  61 C :    0.022692
  62 C :    0.033136
  63 H :    0.010254
  64 H :    0.002125
  65 H :    0.005338
  66 H :   -0.040011
  67 H :    0.001810

  Mayer bond orders larger than 0.100000
B(  0-Ru,  1-Cl) :   1.8069 B(  0-Ru,  2-Cl) :   1.7283 B(  0-Ru,  3-P ) :  -0.7247
B(  0-Ru,  4-C ) :   1.4249 B(  0-Ru,  5-C ) :   0.2617 B(  0-Ru, 11-C ) :   0.2886
B(  0-Ru, 22-C ) :   0.2284 B(  0-Ru, 24-H ) :  -0.1049 B(  0-Ru, 57-C ) :  -0.1305
B(  0-Ru, 62-C ) :   0.1147 B(  1-Cl,  3-P ) :  -0.8974 B(  1-Cl,  4-C ) :  -0.1034
B(  1-Cl, 11-C ) :   0.1368 B(  1-Cl, 36-H ) :   0.1452 B(  1-Cl, 57-C ) :  -0.2225
B(  2-Cl,  3-P ) :  -0.6419 B(  2-Cl,  4-C ) :  -0.2942 B(  2-Cl,  6-C ) :   0.1084
B(  3-P ,  5-C ) :   0.8127 B(  3-P ,  6-C ) :   0.4177 B(  3-P , 10-C ) :  -0.3469
B(  3-P , 11-C ) :   0.7272 B(  3-P , 12-C ) :   0.5591 B(  3-P , 17-C ) :   0.7741
B(  3-P , 18-C ) :   0.2761 B(  3-P , 21-C ) :  -0.1262 B(  3-P , 22-C ) :   0.2787
B(  3-P , 24-H ) :   0.2140 B(  3-P , 35-H ) :  -0.3421 B(  3-P , 37-H ) :   0.1305
B(  3-P , 48-H ) :   0.1738 B(  4-C , 23-H ) :   0.8249 B(  4-C , 57-C ) :   0.3560
B(  4-C , 58-C ) :  -0.4833 B(  4-C , 59-C ) :  -0.1314 B(  4-C , 61-C ) :  -0.2519
B(  4-C , 62-C ) :   0.3220 B(  5-C ,  6-C ) :   1.3214 B(  5-C ,  7-C ) :   0.3995
B(  5-C ,  9-C ) :   0.3331 B(  5-C , 10-C ) :   1.2388 B(  5-C , 16-C ) :   0.1180
B(  5-C , 17-C ) :   0.1324 B(  5-C , 24-H ) :   0.5796 B(  6-C ,  7-C ) :   0.8930
B(  6-C ,  8-C ) :   0.1250 B(  6-C ,  9-C ) :   0.1021 B(  6-C , 17-C ) :   0.1656
B(  6-C , 24-H ) :  -0.1620 B(  6-C , 25-H ) :   0.8802 B(  6-C , 26-H ) :   0.8064
B(  7-C ,  8-C ) :   1.0408 B(  7-C , 25-H ) :  -0.1150 B(  7-C , 26-H ) :   0.1016
B(  7-C , 27-H ) :   0.9864 B(  7-C , 28-H ) :   0.9478 B(  8-C ,  9-C ) :   1.0584
B(  8-C , 29-H ) :   0.9791 B(  8-C , 30-H ) :   0.9813 B(  9-C , 10-C ) :   0.7299
B(  9-C , 31-H ) :   0.9320 B(  9-C , 32-H ) :   0.9630 B(  9-C , 33-H ) :   0.2618
B(  9-C , 34-H ) :  -0.1567 B( 10-C , 24-H ) :  -0.1461 B( 10-C , 32-H ) :  -0.1182
B( 10-C , 33-H ) :   0.8119 B( 10-C , 34-H ) :   0.9655 B( 11-C , 12-C ) :   0.9032
B( 11-C , 13-C ) :   0.4281 B( 11-C , 15-C ) :   0.3826 B( 11-C , 16-C ) :   1.4030
B( 11-C , 17-C ) :   0.2325 B( 11-C , 22-C ) :   0.1303 B( 11-C , 35-H ) :   0.7701
B( 12-C , 13-C ) :   0.9092 B( 12-C , 14-C ) :   0.1337 B( 12-C , 16-C ) :  -0.1483
B( 12-C , 36-H ) :   0.7684 B( 12-C , 37-H ) :   0.9435 B( 13-C , 14-C ) :   1.0505
B( 13-C , 15-C ) :   0.1050 B( 13-C , 36-H ) :   0.1018 B( 13-C , 38-H ) :   0.9606
B( 13-C , 39-H ) :   0.9314 B( 14-C , 15-C ) :   1.0516 B( 14-C , 40-H ) :   0.9829
B( 14-C , 41-H ) :   0.9810 B( 15-C , 16-C ) :   0.8370 B( 15-C , 42-H ) :   0.9166
B( 15-C , 43-H ) :   0.9493 B( 15-C , 44-H ) :  -0.1125 B( 15-C , 45-H ) :   0.2212
B( 16-C , 17-C ) :   0.1198 B( 16-C , 35-H ) :  -0.1550 B( 16-C , 44-H ) :   0.9438
B( 16-C , 45-H ) :   0.6535 B( 17-C , 18-C ) :   0.9758 B( 17-C , 19-C ) :   0.3447
B( 17-C , 21-C ) :   0.3203 B( 17-C , 22-C ) :   1.1217 B( 17-C , 46-H ) :   0.8716
B( 18-C , 19-C ) :   0.8424 B( 18-C , 20-C ) :   0.1723 B( 18-C , 47-H ) :   0.9773
B( 18-C , 48-H ) :   0.7815 B( 19-C , 20-C ) :   1.0371 B( 19-C , 48-H ) :   0.1752
B( 19-C , 49-H ) :   0.9409 B( 19-C , 50-H ) :   0.9515 B( 20-C , 21-C ) :   0.9971
B( 20-C , 22-C ) :   0.1696 B( 20-C , 51-H ) :   0.9893 B( 20-C , 52-H ) :   0.9716
B( 21-C , 22-C ) :   1.0687 B( 21-C , 53-H ) :   0.9639 B( 21-C , 54-H ) :   0.9499
B( 22-C , 46-H ) :  -0.1568 B( 22-C , 55-H ) :   0.8079 B( 22-C , 56-H ) :   1.0090
B( 23-H , 57-C ) :   0.1017 B( 57-C , 58-C ) :   1.2899 B( 57-C , 59-C ) :   0.1060
B( 57-C , 61-C ) :   0.1233 B( 57-C , 62-C ) :   0.3380 B( 57-C , 66-H ) :  -0.2411
B( 58-C , 59-C ) :   1.1921 B( 58-C , 62-C ) :  -0.2149 B( 58-C , 63-H ) :   1.2633
B( 59-C , 60-C ) :   1.1803 B( 59-C , 63-H ) :  -0.1497 B( 59-C , 64-H ) :   1.1233
B( 60-C , 61-C ) :   1.1299 B( 60-C , 67-H ) :   1.1137 B( 61-C , 62-C ) :   1.3395
B( 61-C , 65-H ) :   1.1382 B( 62-C , 66-H ) :   1.1348

FINAL SINGLE POINT ENERGY     -2332.897328416253

DIPOLE MOMENT
-------------
                                X             Y             Z
Electronic contribution:     94.57270     -73.81565     -66.25205
Nuclear contribution   :    -95.45400      75.19378      67.48059
                        -----------------------------------------
Total Dipole Moment    :     -0.88130       1.37813       1.22854
                        -----------------------------------------
Magnitude (a.u.)       :      2.04578
Magnitude (Debye)      :      5.19997

Rotational constants in cm-1:     0.004948     0.003136     0.003087
Rotational constants in MHz :   148.341837    94.004802    92.554473

                             ****ORCA TERMINATED NORMALLY****
TOTAL RUN TIME: 0 days 2 hours 45 minutes 18 seconds 851 msec
