                         Program Version 4.2.0 -  RELEASE  -
|  1> #
|  2> # MOR11_ed11 wB97X-V/Def2-TZVPPD
|  3> #
|  4> ! wb97x-v def2-tzvppd def2/jk grid4 nofinalgrid
|  5>
|  6> *xyz 0 1
|  7> C       -0.215143    2.474912    0.000943
|  8> C        0.405007    3.719049    0.001069
|  9> C        1.797844    3.776033    0.000678
| 10> C        2.518886    2.587780    0.000166
| 11> H       -1.296303    2.357179    0.001183
| 12> H       -0.198474    4.620568    0.001502
| 13> H        2.316345    4.729851    0.000789
| 14> H        3.602578    2.611029   -0.000041
| 15> N        0.477795    1.324684    0.000439
| 16> C        1.835277    1.367244    0.000057
| 17> C        2.509992    0.059887   -0.000357
| 18> N        1.694840   -1.036421    0.000876
| 19> C        2.257001   -2.260308    0.000535
| 20> C        4.472096   -1.347919   -0.002398
| 21> C        3.629983   -2.459360   -0.001050
| 22> H        1.562821   -3.092687    0.001515
| 23> H        4.023772   -3.470102   -0.001337
| 24> C        3.900751   -0.081941   -0.002040
| 25> H        4.532932    0.798314   -0.003223
| 26> H        5.551118   -1.464051   -0.003853
| 27> Pd      -0.336917   -0.654572    0.001071
| 28> C       -0.858975   -2.626404    0.002691
| 29> H       -0.413078   -3.060930    0.907026
| 30> H       -0.415091   -3.062278   -0.901950
| 31> H       -1.933716   -2.807010    0.004117
| 32> I       -2.840745   -0.024929   -0.001244
| 33> *
| 34>
| 35> %maxcore 5000
| 36>
| 37> %pal
| 38> nprocs = 24
| 39> end
| 40>
| 41>
| 42>                          ****END OF INPUT****

CARTESIAN COORDINATES (ANGSTROEM)
---------------------------------
  C     -0.215143    2.474912    0.000943
  C      0.405007    3.719049    0.001069
  C      1.797844    3.776033    0.000678
  C      2.518886    2.587780    0.000166
  H     -1.296303    2.357179    0.001183
  H     -0.198474    4.620568    0.001502
  H      2.316345    4.729851    0.000789
  H      3.602578    2.611029   -0.000041
  N      0.477795    1.324684    0.000439
  C      1.835277    1.367244    0.000057
  C      2.509992    0.059887   -0.000357
  N      1.694840   -1.036421    0.000876
  C      2.257001   -2.260308    0.000535
  C      4.472096   -1.347919   -0.002398
  C      3.629983   -2.459360   -0.001050
  H      1.562821   -3.092687    0.001515
  H      4.023772   -3.470102   -0.001337
  C      3.900751   -0.081941   -0.002040
  H      4.532932    0.798314   -0.003223
  H      5.551118   -1.464051   -0.003853
  Pd    -0.336917   -0.654572    0.001071
  C     -0.858975   -2.626404    0.002691
  H     -0.413078   -3.060930    0.907026
  H     -0.415091   -3.062278   -0.901950
  H     -1.933716   -2.807010    0.004117
  I     -2.840745   -0.024929   -0.001244

 Total Charge           Charge          ....    0
 Multiplicity           Mult            ....    1
 Number of Electrons    NEL             ....  134
 Basis Dimension        Dim             ....  783

ORBITAL ENERGIES
----------------

  NO   OCC          E(Eh)            E(eV)
   0   2.0000     -14.488894      -394.2628
   1   2.0000     -14.471549      -393.7909
   2   2.0000     -10.371111      -282.2123
   3   2.0000     -10.364517      -282.0328
   4   2.0000     -10.351701      -281.6841
   5   2.0000     -10.339348      -281.3480
   6   2.0000     -10.337621      -281.3010
   7   2.0000     -10.330778      -281.1148
   8   2.0000     -10.329867      -281.0900
   9   2.0000     -10.324799      -280.9521
  10   2.0000     -10.324131      -280.9339
  11   2.0000     -10.315981      -280.7121
  12   2.0000     -10.231886      -278.4238
  13   2.0000      -6.863892      -186.7760
  14   2.0000      -4.891098      -133.0936
  15   2.0000      -4.885693      -132.9465
  16   2.0000      -4.885421      -132.9391
  17   2.0000      -3.559761       -96.8660
  18   2.0000      -2.253694       -61.3261
  19   2.0000      -2.250240       -61.2321
  20   2.0000      -2.224207       -60.5237
  21   2.0000      -1.944836       -52.9217
  22   2.0000      -1.942939       -52.8701
  23   2.0000      -1.942836       -52.8673
  24   2.0000      -1.938223       -52.7417
  25   2.0000      -1.938201       -52.7411
  26   2.0000      -1.143663       -31.1207
  27   2.0000      -1.115062       -30.3424
  28   2.0000      -0.987728       -26.8774
  29   2.0000      -0.975783       -26.5524
  30   2.0000      -0.973460       -26.4892
  31   2.0000      -0.915034       -24.8993
  32   2.0000      -0.826181       -22.4815
  33   2.0000      -0.816881       -22.2285
  34   2.0000      -0.782193       -21.2846
  35   2.0000      -0.774080       -21.0638
  36   2.0000      -0.767337       -20.8803
  37   2.0000      -0.735169       -20.0050
  38   2.0000      -0.704086       -19.1591
  39   2.0000      -0.661066       -17.9885
  40   2.0000      -0.657860       -17.9013
  41   2.0000      -0.636622       -17.3234
  42   2.0000      -0.617249       -16.7962
  43   2.0000      -0.594735       -16.1836
  44   2.0000      -0.590603       -16.0711
  45   2.0000      -0.582306       -15.8454
  46   2.0000      -0.574446       -15.6315
  47   2.0000      -0.561386       -15.2761
  48   2.0000      -0.549663       -14.9571
  49   2.0000      -0.521733       -14.1971
  50   2.0000      -0.508067       -13.8252
  51   2.0000      -0.485731       -13.2174
  52   2.0000      -0.485386       -13.2080
  53   2.0000      -0.473475       -12.8839
  54   2.0000      -0.468921       -12.7600
  55   2.0000      -0.447549       -12.1784
  56   2.0000      -0.432393       -11.7660
  57   2.0000      -0.427455       -11.6316
  58   2.0000      -0.373223       -10.1559
  59   2.0000      -0.367851       -10.0097
  60   2.0000      -0.361700        -9.8424
  61   2.0000      -0.360628        -9.8132
  62   2.0000      -0.344205        -9.3663
  63   2.0000      -0.341467        -9.2918
  64   2.0000      -0.313181        -8.5221
  65   2.0000      -0.286461        -7.7950
  66   2.0000      -0.283826        -7.7233
  67   0.0000      -0.033107        -0.9009
  68   0.0000       0.003572         0.0972
  69   0.0000       0.019903         0.5416
  70   0.0000       0.033846         0.9210
  71   0.0000       0.047046         1.2802

MULLIKEN ATOMIC CHARGES
-----------------------
   0 C :    0.218596
   1 C :   -0.164711
   2 C :   -0.052917
   3 C :    0.049361
   4 H :   -0.284669
   5 H :   -0.003021
   6 H :    0.008029
   7 H :   -0.103116
   8 N :    0.213214
   9 C :    0.615120
  10 C :   -0.078580
  11 N :    0.324809
  12 C :   -0.025403
  13 C :   -0.024743
  14 C :   -0.155830
  15 H :   -0.052523
  16 H :   -0.015638
  17 C :    0.014167
  18 H :   -0.108818
  19 H :    0.013845
  20 Pd:   -0.008596
  21 C :   -0.160132
  22 H :    0.039984
  23 H :    0.040520
  24 H :    0.090870
  25 I :   -0.389817
Sum of atomic charges:    0.0000000

LOEWDIN ATOMIC CHARGES
----------------------
   0 C :   -0.048411
   1 C :    0.058774
   2 C :    0.049952
   3 C :    0.076769
   4 H :   -0.089902
   5 H :    0.009667
   6 H :    0.012681
   7 H :    0.000365
   8 N :    0.005405
   9 C :   -0.173810
  10 C :   -0.158171
  11 N :    0.019986
  12 C :   -0.008758
  13 C :    0.053578
  14 C :    0.058604
  15 H :   -0.011587
  16 H :    0.009998
  17 C :    0.079183
  18 H :    0.001925
  19 H :    0.013858
  20 Pd:    0.418588
  21 C :   -0.076090
  22 H :   -0.109344
  23 H :   -0.109306
  24 H :   -0.165489
  25 I :    0.081537

  Mayer bond orders larger than 0.100000
B(  0-C ,  1-C ) :   1.1907 B(  0-C ,  4-H ) :   1.0240 B(  0-C ,  8-N ) :   1.4891
B(  0-C , 20-Pd) :  -0.1229 B(  0-C , 25-I ) :  -0.1367 B(  1-C ,  2-C ) :   1.1640
B(  1-C ,  5-H ) :   1.1156 B(  1-C , 20-Pd) :   0.1106 B(  2-C ,  3-C ) :   1.0079
B(  2-C ,  6-H ) :   1.0940 B(  2-C ,  7-H ) :  -0.1420 B(  2-C ,  8-N ) :   0.1420
B(  3-C ,  7-H ) :   1.2581 B(  3-C ,  8-N ) :  -0.2178 B(  3-C ,  9-C ) :   0.9802
B(  3-C , 10-C ) :  -0.3799 B(  3-C , 20-Pd) :   0.1738 B(  4-H ,  8-N ) :  -0.1569
B(  4-H , 25-I ) :   0.3174 B(  7-H ,  9-C ) :  -0.1816 B(  8-N ,  9-C ) :   1.2346
B(  8-N , 10-C ) :   0.3978 B(  8-N , 20-Pd) :   0.1927 B(  9-C , 10-C ) :   1.0072
B(  9-C , 17-C ) :  -0.5000 B(  9-C , 20-Pd) :  -0.1737 B( 10-C , 11-N ) :   1.6133
B( 10-C , 12-C ) :  -0.1289 B( 10-C , 17-C ) :   1.0399 B( 10-C , 18-H ) :  -0.1808
B( 10-C , 20-Pd) :   0.1029 B( 11-N , 12-C ) :   1.6576 B( 11-N , 13-C ) :   0.1552
B( 11-N , 17-C ) :  -0.2039 B( 11-N , 20-Pd) :   0.2536 B( 12-C , 14-C ) :   1.1739
B( 12-C , 15-H ) :   1.1093 B( 13-C , 14-C ) :   1.1761 B( 13-C , 17-C ) :   1.0475
B( 13-C , 18-H ) :  -0.1475 B( 13-C , 19-H ) :   1.0877 B( 14-C , 16-H ) :   1.1165
B( 17-C , 18-H ) :   1.2611 B( 17-C , 20-Pd) :   0.1636 B( 20-Pd, 21-C ) :   0.6599
B( 20-Pd, 25-I ) :   0.9089 B( 21-C , 22-H ) :   1.0167 B( 21-C , 23-H ) :   1.0168
B( 21-C , 24-H ) :   0.9789

FINAL SINGLE POINT ENERGY      -960.995358592795

DIPOLE MOMENT
-------------
                                X             Y             Z
Electronic contribution:   -214.24633     -39.82993      -0.01930
Nuclear contribution   :    218.94043      41.00073       0.01934
                        -----------------------------------------
Total Dipole Moment    :      4.69410       1.17080       0.00004
                        -----------------------------------------
Magnitude (a.u.)       :      4.83791
Magnitude (Debye)      :     12.29699

Rotational constants in cm-1:     0.017794     0.008244     0.005640
Rotational constants in MHz :   533.441148   247.152748   169.085365

                             ****ORCA TERMINATED NORMALLY****
TOTAL RUN TIME: 0 days 0 hours 17 minutes 57 seconds 723 msec
