                         Program Version 4.2.0 -  RELEASE  -
|  1> #
|  2> # MOR18_ed37 wB97X-V/Def2-TZVPPD
|  3> #
|  4> ! wb97x-v def2-tzvppd def2/jk grid4 nofinalgrid
|  5>
|  6> *xyz 0 1
|  7> Mo      -0.098072   -0.000113   -0.000040
|  8> O       -1.958568   -1.162297    2.254949
|  9> C       -1.292076   -0.726548    1.409379
| 10> C       -1.290510    1.584735   -0.075353
| 11> O       -1.955816    2.535729   -0.120716
| 12> C       -1.292074   -0.856985   -1.334180
| 13> O       -1.958517   -1.371361   -2.134397
| 14> C        1.772262   -1.255233   -0.664863
| 15> C        1.773533   -1.210923    0.743855
| 16> C        1.772126    0.051067    1.419259
| 17> C        1.773764    1.248901    0.676519
| 18> C        1.772513    1.202801   -0.754108
| 19> C        1.773865   -0.039338   -1.420099
| 20> H        1.752441   -2.209415   -1.178166
| 21> H        1.754475   -2.130485    1.316775
| 22> H        1.752160    0.083668    2.502258
| 23> H        1.754801    2.204840    1.186440
| 24> H        1.752821    2.124408   -1.323840
| 25> H        1.755108   -0.075692   -2.502938
| 26> *
| 27>
| 28> %maxcore 5000
| 29>
| 30> %pal
| 31> nprocs = 24
| 32> end
| 33>
| 34>
| 35>                          ****END OF INPUT****

CARTESIAN COORDINATES (ANGSTROEM)
---------------------------------
  Mo    -0.098072   -0.000113   -0.000040
  O     -1.958568   -1.162297    2.254949
  C     -1.292076   -0.726548    1.409379
  C     -1.290510    1.584735   -0.075353
  O     -1.955816    2.535729   -0.120716
  C     -1.292074   -0.856985   -1.334180
  O     -1.958517   -1.371361   -2.134397
  C      1.772262   -1.255233   -0.664863
  C      1.773533   -1.210923    0.743855
  C      1.772126    0.051067    1.419259
  C      1.773764    1.248901    0.676519
  C      1.772513    1.202801   -0.754108
  C      1.773865   -0.039338   -1.420099
  H      1.752441   -2.209415   -1.178166
  H      1.754475   -2.130485    1.316775
  H      1.752160    0.083668    2.502258
  H      1.754801    2.204840    1.186440
  H      1.752821    2.124408   -1.323840
  H      1.755108   -0.075692   -2.502938

 Total Charge           Charge          ....    0
 Multiplicity           Mult            ....    1
 Number of Electrons    NEL             ....   98
 Basis Dimension        Dim             ....  611

ORBITAL ENERGIES
----------------

  NO   OCC          E(Eh)            E(eV)
   0   2.0000     -19.266956      -524.2805
   1   2.0000     -19.266952      -524.2804
   2   2.0000     -19.266945      -524.2802
   3   2.0000     -10.374561      -282.3062
   4   2.0000     -10.374557      -282.3060
   5   2.0000     -10.374555      -282.3060
   6   2.0000     -10.333322      -281.1840
   7   2.0000     -10.333158      -281.1795
   8   2.0000     -10.333154      -281.1794
   9   2.0000     -10.332531      -281.1625
  10   2.0000     -10.332529      -281.1624
  11   2.0000     -10.332352      -281.1576
  12   2.0000      -2.665251       -72.5252
  13   2.0000      -1.679304       -45.6962
  14   2.0000      -1.664220       -45.2857
  15   2.0000      -1.664209       -45.2854
  16   2.0000      -1.235593       -33.6222
  17   2.0000      -1.234839       -33.6017
  18   2.0000      -1.234837       -33.6016
  19   2.0000      -1.044877       -28.4325
  20   2.0000      -0.933293       -25.3962
  21   2.0000      -0.933293       -25.3962
  22   2.0000      -0.775915       -21.1137
  23   2.0000      -0.775913       -21.1137
  24   2.0000      -0.693837       -18.8803
  25   2.0000      -0.680499       -18.5173
  26   2.0000      -0.661665       -18.0048
  27   2.0000      -0.661657       -18.0046
  28   2.0000      -0.622432       -16.9372
  29   2.0000      -0.601724       -16.3737
  30   2.0000      -0.589224       -16.0336
  31   2.0000      -0.589223       -16.0336
  32   2.0000      -0.575720       -15.6661
  33   2.0000      -0.559092       -15.2137
  34   2.0000      -0.554381       -15.0855
  35   2.0000      -0.554369       -15.0852
  36   2.0000      -0.542733       -14.7685
  37   2.0000      -0.542728       -14.7684
  38   2.0000      -0.536161       -14.5897
  39   2.0000      -0.521319       -14.1858
  40   2.0000      -0.521304       -14.1854
  41   2.0000      -0.506737       -13.7890
  42   2.0000      -0.495737       -13.4897
  43   2.0000      -0.495732       -13.4896
  44   2.0000      -0.429899       -11.6981
  45   2.0000      -0.429890       -11.6979
  46   2.0000      -0.299757        -8.1568
  47   2.0000      -0.295181        -8.0323
  48   2.0000      -0.295164        -8.0318
  49   0.0000       0.016246         0.4421
  50   0.0000       0.016255         0.4423
  51   0.0000       0.046127         1.2552
  52   0.0000       0.053673         1.4605
  53   0.0000       0.053685         1.4608

MULLIKEN ATOMIC CHARGES
-----------------------
   0 Mo:   -0.524949
   1 O :   -0.236374
   2 C :    0.274493
   3 C :    0.274773
   4 O :   -0.236336
   5 C :    0.274436
   6 O :   -0.236439
   7 C :    0.097003
   8 C :    0.057887
   9 C :    0.098191
  10 C :    0.057397
  11 C :    0.097553
  12 C :    0.058009
  13 H :   -0.004990
  14 H :   -0.013385
  15 H :   -0.005346
  16 H :   -0.013405
  17 H :   -0.005250
  18 H :   -0.013267
Sum of atomic charges:    0.0000000

LOEWDIN ATOMIC CHARGES
----------------------
   0 Mo:    0.640687
   1 O :    0.072289
   2 C :   -0.214740
   3 C :   -0.214787
   4 O :    0.072295
   5 C :   -0.214752
   6 O :    0.072279
   7 C :   -0.050933
   8 C :   -0.049736
   9 C :   -0.050973
  10 C :   -0.049770
  11 C :   -0.050963
  12 C :   -0.049744
  13 H :    0.014970
  14 H :    0.014630
  15 H :    0.014979
  16 H :    0.014643
  17 H :    0.014986
  18 H :    0.014638

  Mayer bond orders larger than 0.100000
B(  0-Mo,  2-C ) :   1.3055 B(  0-Mo,  3-C ) :   1.3056 B(  0-Mo,  5-C ) :   1.3055
B(  0-Mo,  7-C ) :   0.4003 B(  0-Mo,  8-C ) :   0.4144 B(  0-Mo,  9-C ) :   0.4005
B(  0-Mo, 10-C ) :   0.4139 B(  0-Mo, 11-C ) :   0.4003 B(  0-Mo, 12-C ) :   0.4145
B(  1-O ,  2-C ) :   2.0715 B(  3-C ,  4-O ) :   2.0714 B(  5-C ,  6-O ) :   2.0715
B(  7-C ,  8-C ) :   1.1924 B(  7-C ,  9-C ) :  -0.1066 B(  7-C , 11-C ) :  -0.1069
B(  7-C , 12-C ) :   0.9877 B(  7-C , 13-H ) :   1.0726 B(  8-C ,  9-C ) :   0.9882
B(  8-C , 10-C ) :  -0.1018 B(  8-C , 12-C ) :  -0.1021 B(  8-C , 14-H ) :   1.0776
B(  9-C , 10-C ) :   1.1905 B(  9-C , 11-C ) :  -0.1073 B(  9-C , 15-H ) :   1.0733
B( 10-C , 11-C ) :   0.9878 B( 10-C , 12-C ) :  -0.1014 B( 10-C , 16-H ) :   1.0781
B( 11-C , 12-C ) :   1.1927 B( 11-C , 17-H ) :   1.0728 B( 12-C , 18-H ) :   1.0775

FINAL SINGLE POINT ENERGY      -640.566997744821

DIPOLE MOMENT
-------------
                                X             Y             Z
Electronic contribution:    -11.06028      -0.00582      -0.00270
Nuclear contribution   :     13.46160       0.00506       0.00283
                        -----------------------------------------
Total Dipole Moment    :      2.40132      -0.00076       0.00013
                        -----------------------------------------
Magnitude (a.u.)       :      2.40132
Magnitude (Debye)      :      6.10367

Rotational constants in cm-1:     0.028916     0.021584     0.021580
Rotational constants in MHz :   866.875127   647.065472   646.965216

                             ****ORCA TERMINATED NORMALLY****
TOTAL RUN TIME: 0 days 0 hours 4 minutes 30 seconds 994 msec
