                         Program Version 4.2.0 -  RELEASE  -
|  1> #
|  2> # MOR17_ed36 wB97X-V/Def2-TZVPPD
|  3> #
|  4> ! wb97x-v def2-tzvppd def2/jk grid4 nofinalgrid
|  5>
|  6> *xyz 0 1
|  7> Mo      -0.000266    0.073285   -0.001759
|  8> C        1.725893   -0.773990   -1.226681
|  9> C        2.211696    0.414668   -0.610995
| 10> C        2.192326    0.250811    0.809261
| 11> C        1.685230   -1.035926    1.105715
| 12> C        1.413513   -1.680058   -0.153190
| 13> H        1.704188   -0.987838   -2.284881
| 14> H        2.536107    1.301869   -1.133102
| 15> H        2.493190    0.988099    1.537778
| 16> H        1.573828   -1.467340    2.089978
| 17> H        1.067801   -2.694661   -0.276651
| 18> C       -1.407221   -1.685804    0.112781
| 19> C       -1.709531   -0.814976    1.218351
| 20> C       -2.202710    0.272498   -0.775202
| 21> C       -1.695077   -1.002456   -1.122045
| 22> H       -1.669608   -1.061100    2.269076
| 23> H       -2.528690    1.258371    1.205067
| 24> C       -2.207491    0.390536    0.649493
| 25> H       -1.601566   -1.403288   -2.120864
| 26> H       -1.058155   -2.702954    0.200059
| 27> C        0.040880    2.214506    0.720862
| 28> H        0.978366    2.504794    1.184780
| 29> H       -0.817411    2.527371    1.307308
| 30> C       -0.044841    2.215313   -0.718681
| 31> H        0.814149    2.526211   -1.305102
| 32> H       -0.980875    2.509977   -1.182445
| 33> H       -2.516160    1.031799   -1.475134
| 34> *
| 35>
| 36> %maxcore 5000
| 37>
| 38> %pal
| 39> nprocs = 24
| 40> end
| 41>
| 42>
| 43>                          ****END OF INPUT****

CARTESIAN COORDINATES (ANGSTROEM)
---------------------------------
  Mo    -0.000266    0.073285   -0.001759
  C      1.725893   -0.773990   -1.226681
  C      2.211696    0.414668   -0.610995
  C      2.192326    0.250811    0.809261
  C      1.685230   -1.035926    1.105715
  C      1.413513   -1.680058   -0.153190
  H      1.704188   -0.987838   -2.284881
  H      2.536107    1.301869   -1.133102
  H      2.493190    0.988099    1.537778
  H      1.573828   -1.467340    2.089978
  H      1.067801   -2.694661   -0.276651
  C     -1.407221   -1.685804    0.112781
  C     -1.709531   -0.814976    1.218351
  C     -2.202710    0.272498   -0.775202
  C     -1.695077   -1.002456   -1.122045
  H     -1.669608   -1.061100    2.269076
  H     -2.528690    1.258371    1.205067
  C     -2.207491    0.390536    0.649493
  H     -1.601566   -1.403288   -2.120864
  H     -1.058155   -2.702954    0.200059
  C      0.040880    2.214506    0.720862
  H      0.978366    2.504794    1.184780
  H     -0.817411    2.527371    1.307308
  C     -0.044841    2.215313   -0.718681
  H      0.814149    2.526211   -1.305102
  H     -0.980875    2.509977   -1.182445
  H     -2.516160    1.031799   -1.475134

 Total Charge           Charge          ....    0
 Multiplicity           Mult            ....    1
 Number of Electrons    NEL             ....  100
 Basis Dimension        Dim             ....  738

ORBITAL ENERGIES
----------------

  NO   OCC          E(Eh)            E(eV)
   0   2.0000     -10.287657      -279.9414
   1   2.0000     -10.287566      -279.9389
   2   2.0000     -10.287419      -279.9349
   3   2.0000     -10.287270      -279.9308
   4   2.0000     -10.286637      -279.9136
   5   2.0000     -10.286030      -279.8971
   6   2.0000     -10.285748      -279.8894
   7   2.0000     -10.285657      -279.8870
   8   2.0000     -10.283575      -279.8303
   9   2.0000     -10.283154      -279.8188
  10   2.0000     -10.243611      -278.7428
  11   2.0000     -10.243113      -278.7293
  12   2.0000      -2.667932       -72.5981
  13   2.0000      -1.690665       -46.0053
  14   2.0000      -1.670024       -45.4437
  15   2.0000      -1.641651       -44.6716
  16   2.0000      -1.028038       -27.9743
  17   2.0000      -1.010328       -27.4924
  18   2.0000      -0.862673       -23.4745
  19   2.0000      -0.850581       -23.1455
  20   2.0000      -0.847416       -23.0594
  21   2.0000      -0.847267       -23.0553
  22   2.0000      -0.843311       -22.9477
  23   2.0000      -0.696462       -18.9517
  24   2.0000      -0.679687       -18.4952
  25   2.0000      -0.665321       -18.1043
  26   2.0000      -0.663748       -18.0615
  27   2.0000      -0.661940       -18.0123
  28   2.0000      -0.659359       -17.9421
  29   2.0000      -0.648695       -17.6519
  30   2.0000      -0.550388       -14.9768
  31   2.0000      -0.535707       -14.5773
  32   2.0000      -0.521520       -14.1913
  33   2.0000      -0.516003       -14.0412
  34   2.0000      -0.514114       -13.9897
  35   2.0000      -0.509395       -13.8614
  36   2.0000      -0.507606       -13.8127
  37   2.0000      -0.491367       -13.3708
  38   2.0000      -0.490298       -13.3417
  39   2.0000      -0.487585       -13.2679
  40   2.0000      -0.484231       -13.1766
  41   2.0000      -0.472237       -12.8502
  42   2.0000      -0.436229       -11.8704
  43   2.0000      -0.370734       -10.0882
  44   2.0000      -0.368048       -10.0151
  45   2.0000      -0.365082        -9.9344
  46   2.0000      -0.350232        -9.5303
  47   2.0000      -0.348185        -9.4746
  48   2.0000      -0.278413        -7.5760
  49   2.0000      -0.253181        -6.8894
  50   0.0000       0.055934         1.5220
  51   0.0000       0.062613         1.7038
  52   0.0000       0.069008         1.8778
  53   0.0000       0.069431         1.8893
  54   0.0000       0.082176         2.2361

MULLIKEN ATOMIC CHARGES
-----------------------
   0 Mo:   -1.142687
   1 C :    0.423362
   2 C :   -0.236528
   3 C :   -0.093865
   4 C :    0.467545
   5 C :   -0.330516
   6 H :   -0.065213
   7 H :    0.108512
   8 H :    0.057702
   9 H :    0.014826
  10 H :    0.157134
  11 C :   -0.333266
  12 C :    0.397043
  13 C :   -0.113217
  14 C :    0.471425
  15 H :   -0.060412
  16 H :    0.110569
  17 C :   -0.212456
  18 H :    0.005873
  19 H :    0.162917
  20 C :    0.089463
  21 H :    0.012658
  22 H :   -0.015065
  23 C :    0.063427
  24 H :   -0.022990
  25 H :    0.014527
  26 H :    0.069234
Sum of atomic charges:   -0.0000000

LOEWDIN ATOMIC CHARGES
----------------------
   0 Mo:    1.063949
   1 C :   -0.064891
   2 C :   -0.081836
   3 C :   -0.071945
   4 C :   -0.060172
   5 C :   -0.091203
   6 H :   -0.000235
   7 H :    0.002375
   8 H :    0.002369
   9 H :    0.004492
  10 H :   -0.003959
  11 C :   -0.091563
  12 C :   -0.065294
  13 C :   -0.073076
  14 C :   -0.060285
  15 H :    0.000193
  16 H :    0.002342
  17 C :   -0.079581
  18 H :    0.003787
  19 H :   -0.004149
  20 C :   -0.034729
  21 H :   -0.065276
  22 H :   -0.065676
  23 C :   -0.035813
  24 H :   -0.066006
  25 H :   -0.065896
  26 H :    0.002075

  Mayer bond orders larger than 0.100000
B(  0-Mo,  2-C ) :   0.8684 B(  0-Mo,  3-C ) :   0.5301 B(  0-Mo,  5-C ) :   0.9656
B(  0-Mo, 11-C ) :   0.9761 B(  0-Mo, 13-C ) :   0.5722 B(  0-Mo, 17-C ) :   0.8323
B(  0-Mo, 20-C ) :   0.7139 B(  0-Mo, 23-C ) :   0.7294 B(  1-C ,  2-C ) :   1.0853
B(  1-C ,  3-C ) :  -0.1550 B(  1-C ,  5-C ) :   1.0464 B(  1-C ,  6-H ) :   1.0055
B(  1-C , 11-C ) :  -0.1383 B(  1-C , 12-C ) :   0.2291 B(  1-C , 14-C ) :   0.2137
B(  1-C , 17-C ) :  -0.2354 B(  2-C ,  3-C ) :   1.1410 B(  2-C ,  4-C ) :  -0.1141
B(  2-C ,  7-H ) :   0.9325 B(  2-C , 11-C ) :   0.1165 B(  2-C , 12-C ) :  -0.2495
B(  2-C , 17-C ) :   0.1436 B(  2-C , 20-C ) :  -0.1057 B(  2-C , 23-C ) :   0.1339
B(  3-C ,  4-C ) :   1.1307 B(  3-C ,  8-H ) :   0.9453 B(  3-C , 12-C ) :   0.1032
B(  3-C , 20-C ) :   0.1376 B(  3-C , 23-C ) :  -0.1186 B(  4-C ,  5-C ) :   1.0963
B(  4-C ,  9-H ) :   0.9316 B(  4-C , 11-C ) :  -0.1217 B(  4-C , 12-C ) :   0.1956
B(  4-C , 14-C ) :   0.1511 B(  5-C , 10-H ) :   0.9189 B(  5-C , 11-C ) :   0.3429
B(  5-C , 12-C ) :  -0.1340 B(  5-C , 14-C ) :  -0.1230 B(  5-C , 17-C ) :   0.1093
B( 11-C , 12-C ) :   1.0572 B( 11-C , 14-C ) :   1.0957 B( 11-C , 19-H ) :   0.9152
B( 12-C , 13-C ) :  -0.1636 B( 12-C , 15-H ) :   1.0024 B( 12-C , 17-C ) :   1.1031
B( 13-C , 14-C ) :   1.1239 B( 13-C , 17-C ) :   1.1483 B( 13-C , 20-C ) :  -0.1205
B( 13-C , 23-C ) :   0.1468 B( 13-C , 26-H ) :   0.9444 B( 14-C , 17-C ) :  -0.1095
B( 14-C , 18-H ) :   0.9383 B( 16-H , 17-C ) :   0.9268 B( 17-C , 20-C ) :   0.1362
B( 17-C , 23-C ) :  -0.1014 B( 20-C , 21-H ) :   1.0542 B( 20-C , 22-H ) :   1.0697
B( 20-C , 23-C ) :   0.8216 B( 23-C , 24-H ) :   1.0780 B( 23-C , 25-H ) :   1.0525

FINAL SINGLE POINT ENERGY      -533.936787709691

DIPOLE MOMENT
-------------
                                X             Y             Z
Electronic contribution:     -0.01309       0.79956      -0.10929
Nuclear contribution   :      0.01285      -1.32377       0.12031
                        -----------------------------------------
Total Dipole Moment    :     -0.00024      -0.52421       0.01102
                        -----------------------------------------
Magnitude (a.u.)       :      0.52432
Magnitude (Debye)      :      1.33272

Rotational constants in cm-1:     0.040116     0.028148     0.022583
Rotational constants in MHz :  1202.641010   843.851559   677.032187

                             ****ORCA TERMINATED NORMALLY****
TOTAL RUN TIME: 0 days 0 hours 12 minutes 22 seconds 365 msec
