                         Program Version 4.2.0 -  RELEASE  -
|  1> #
|  2> # MOR15_ed28 wB97X-V/Def2-TZVPPD
|  3> #
|  4> ! wb97x-v def2-tzvppd def2/jk grid4 nofinalgrid
|  5>
|  6> *xyz 0 1
|  7> P        2.231289   -0.430274   -0.463190
|  8> P       -2.231227    0.430230   -0.463237
|  9> C        0.601806    0.475539   -0.398801
| 10> C       -0.601746   -0.475582   -0.398812
| 11> H        0.558406    1.125089   -1.282007
| 12> H        0.584231    1.127683    0.485308
| 13> H       -0.558397   -1.125071   -1.282069
| 14> H       -0.584133   -1.127767    0.485258
| 15> C       -2.297387    1.057835    1.283006
| 16> H       -3.294023    1.464895    1.482076
| 17> H       -1.575039    1.869076    1.414857
| 18> H       -2.084239    0.266904    2.013068
| 19> C       -3.365229   -1.028103   -0.282748
| 20> H       -3.089031   -1.663694    0.567640
| 21> H       -3.336618   -1.627593   -1.198231
| 22> H       -4.392612   -0.676718   -0.143291
| 23> C        3.365219    1.028123   -0.282780
| 24> H        4.392633    0.676869   -0.143242
| 25> H        3.088901    1.663766    0.567523
| 26> H        3.336575    1.627522   -1.198328
| 27> C        2.297280   -1.057763    1.283073
| 28> H        1.574883   -1.868971    1.414841
| 29> H        2.084009   -0.266765    2.013028
| 30> H        3.293857   -1.464863    1.482348
| 31> *
| 32>
| 33> %maxcore 5000
| 34>
| 35> %pal
| 36> nprocs = 24
| 37> end
| 38>
| 39>
| 40>                          ****END OF INPUT****

CARTESIAN COORDINATES (ANGSTROEM)
---------------------------------
  P      2.231289   -0.430274   -0.463190
  P     -2.231227    0.430230   -0.463237
  C      0.601806    0.475539   -0.398801
  C     -0.601746   -0.475582   -0.398812
  H      0.558406    1.125089   -1.282007
  H      0.584231    1.127683    0.485308
  H     -0.558397   -1.125071   -1.282069
  H     -0.584133   -1.127767    0.485258
  C     -2.297387    1.057835    1.283006
  H     -3.294023    1.464895    1.482076
  H     -1.575039    1.869076    1.414857
  H     -2.084239    0.266904    2.013068
  C     -3.365229   -1.028103   -0.282748
  H     -3.089031   -1.663694    0.567640
  H     -3.336618   -1.627593   -1.198231
  H     -4.392612   -0.676718   -0.143291
  C      3.365219    1.028123   -0.282780
  H      4.392633    0.676869   -0.143242
  H      3.088901    1.663766    0.567523
  H      3.336575    1.627522   -1.198328
  C      2.297280   -1.057763    1.283073
  H      1.574883   -1.868971    1.414841
  H      2.084009   -0.266765    2.013028
  H      3.293857   -1.464863    1.482348

 Total Charge           Charge          ....    0
 Multiplicity           Mult            ....    1
 Number of Electrons    NEL             ....   82
 Basis Dimension        Dim             ....  590

ORBITAL ENERGIES
----------------

  NO   OCC          E(Eh)            E(eV)
   0   2.0000     -77.060591     -2096.9253
   1   2.0000     -77.060587     -2096.9252
   2   2.0000     -10.276812      -279.6463
   3   2.0000     -10.276635      -279.6414
   4   2.0000     -10.268289      -279.4143
   5   2.0000     -10.268288      -279.4143
   6   2.0000     -10.267642      -279.3967
   7   2.0000     -10.267641      -279.3967
   8   2.0000      -6.641119      -180.7140
   9   2.0000      -6.641118      -180.7140
  10   2.0000      -4.794965      -130.4776
  11   2.0000      -4.794964      -130.4776
  12   2.0000      -4.794839      -130.4742
  13   2.0000      -4.794838      -130.4742
  14   2.0000      -4.789658      -130.3332
  15   2.0000      -4.789656      -130.3332
  16   2.0000      -0.925577       -25.1862
  17   2.0000      -0.885195       -24.0874
  18   2.0000      -0.851894       -23.1812
  19   2.0000      -0.820152       -22.3175
  20   2.0000      -0.819833       -22.3088
  21   2.0000      -0.755507       -20.5584
  22   2.0000      -0.653534       -17.7836
  23   2.0000      -0.645890       -17.5756
  24   2.0000      -0.580710       -15.8019
  25   2.0000      -0.546777       -14.8786
  26   2.0000      -0.542681       -14.7671
  27   2.0000      -0.540193       -14.6994
  28   2.0000      -0.535410       -14.5693
  29   2.0000      -0.510516       -13.8918
  30   2.0000      -0.508504       -13.8371
  31   2.0000      -0.507799       -13.8179
  32   2.0000      -0.506802       -13.7908
  33   2.0000      -0.481831       -13.1113
  34   2.0000      -0.471191       -12.8218
  35   2.0000      -0.460824       -12.5397
  36   2.0000      -0.425377       -11.5751
  37   2.0000      -0.422819       -11.5055
  38   2.0000      -0.388637       -10.5753
  39   2.0000      -0.324519        -8.8306
  40   2.0000      -0.321470        -8.7476
  41   0.0000       0.058783         1.5996
  42   0.0000       0.067259         1.8302
  43   0.0000       0.072844         1.9822
  44   0.0000       0.076613         2.0847
  45   0.0000       0.084650         2.3034

MULLIKEN ATOMIC CHARGES
-----------------------
   0 P :   -0.202902
   1 P :   -0.202957
   2 C :    0.029035
   3 C :    0.029845
   4 H :    0.085351
   5 H :    0.016946
   6 H :    0.085470
   7 H :    0.016941
   8 C :   -0.227421
   9 H :    0.104958
  10 H :    0.055539
  11 H :    0.104061
  12 C :   -0.252472
  13 H :    0.098343
  14 H :    0.090080
  15 H :    0.098028
  16 C :   -0.252484
  17 H :    0.098035
  18 H :    0.098335
  19 H :    0.090094
  20 C :   -0.227351
  21 H :    0.055504
  22 H :    0.104044
  23 H :    0.104977
Sum of atomic charges:   -0.0000000

LOEWDIN ATOMIC CHARGES
----------------------
   0 P :    0.909552
   1 P :    0.909558
   2 C :   -0.300128
   3 C :   -0.300125
   4 H :   -0.032409
   5 H :   -0.037192
   6 H :   -0.032410
   7 H :   -0.037194
   8 C :   -0.080034
   9 H :   -0.063994
  10 H :   -0.070449
  11 H :   -0.053800
  12 C :   -0.086005
  13 H :   -0.057155
  14 H :   -0.064019
  15 H :   -0.064369
  16 C :   -0.086000
  17 H :   -0.064368
  18 H :   -0.057163
  19 H :   -0.064015
  20 C :   -0.080042
  21 H :   -0.070453
  22 H :   -0.053797
  23 H :   -0.063987

  Mayer bond orders larger than 0.100000
B(  0-P ,  2-C ) :   0.7109 B(  0-P ,  3-C ) :   0.2210 B(  0-P , 16-C ) :   0.8796
B(  0-P , 20-C ) :   0.8648 B(  1-P ,  2-C ) :   0.2214 B(  1-P ,  3-C ) :   0.7105
B(  1-P ,  8-C ) :   0.8649 B(  1-P , 12-C ) :   0.8795 B(  2-C ,  3-C ) :   1.0060
B(  2-C ,  4-H ) :   0.9757 B(  2-C ,  5-H ) :   0.9367 B(  3-C ,  6-H ) :   0.9757
B(  3-C ,  7-H ) :   0.9366 B(  4-H ,  5-H ) :   0.1222 B(  6-H ,  7-H ) :   0.1222
B(  8-C ,  9-H ) :   0.9956 B(  8-C , 10-H ) :   1.0022 B(  8-C , 11-H ) :   0.9530
B( 12-C , 13-H ) :   0.9525 B( 12-C , 14-H ) :   1.0011 B( 12-C , 15-H ) :   0.9999
B( 16-C , 17-H ) :   0.9999 B( 16-C , 18-H ) :   0.9525 B( 16-C , 19-H ) :   1.0011
B( 20-C , 21-H ) :   1.0022 B( 20-C , 22-H ) :   0.9530 B( 20-C , 23-H ) :   0.9956

FINAL SINGLE POINT ENERGY      -920.939178052743

DIPOLE MOMENT
-------------
                                X             Y             Z
Electronic contribution:      0.00066      -0.00041      -7.01868
Nuclear contribution   :     -0.00067       0.00041       7.75547
                        -----------------------------------------
Total Dipole Moment    :     -0.00002       0.00001       0.73679
                        -----------------------------------------
Magnitude (a.u.)       :      0.73679
Magnitude (Debye)      :      1.87276

Rotational constants in cm-1:     0.093884     0.018404     0.018105
Rotational constants in MHz :  2814.581921   551.745538   542.775536

                             ****ORCA TERMINATED NORMALLY****
TOTAL RUN TIME: 0 days 0 hours 2 minutes 18 seconds 133 msec
