                         Program Version 4.2.0 -  RELEASE  -
|  1> #
|  2> # MOR12_ed18 wB97X-V/Def2-TZVPPD
|  3> #
|  4> ! wb97x-v def2-tzvppd def2/jk grid4 nofinalgrid
|  5>
|  6> *xyz 0 1
|  7> Ir       0.000009    0.119441   -0.001134
|  8> P        2.313164   -0.026854    0.000864
|  9> C        3.266155    1.538041    0.001301
| 10> C        2.990776   -0.938546    1.437922
| 11> H        4.076753   -1.056364    1.355244
| 12> H        4.080827   -1.059585   -1.345638
| 13> H        2.508332   -1.918605    1.474823
| 14> H        2.511934   -1.920062   -1.470843
| 15> H        3.000883    2.123603    0.885753
| 16> H        2.748975   -0.395301    2.355327
| 17> C        2.995346   -0.940504   -1.432774
| 18> H        4.343510    1.342437    0.003886
| 19> H        2.757870   -0.397739   -2.351580
| 20> H        3.004825    2.121649   -0.885628
| 21> P       -2.313239   -0.026297    0.000821
| 22> C       -3.266059    1.538685   -0.001751
| 23> C       -2.995240   -0.942628   -1.431183
| 24> H       -2.509974   -1.915937    1.477317
| 25> H       -4.077346   -1.051885    1.357522
| 26> H       -2.748166   -0.391240    2.356043
| 27> C       -2.991181   -0.935299    1.439450
| 28> H       -2.510085   -1.921339   -1.468610
| 29> H       -4.080420   -1.063528   -1.342825
| 30> H       -4.343438    1.343207   -0.001601
| 31> H       -3.002541    2.121837   -0.888321
| 32> H       -2.759672   -0.400400   -2.350803
| 33> H       -3.002807    2.124611    0.883073
| 34> C        0.000649    1.940082   -0.001490
| 35> O        0.001240    3.110505   -0.001979
| 36> Cl      -0.000683   -2.266357   -0.002005
| 37> *
| 38>
| 39> %maxcore 5000
| 40>
| 41> %pal
| 42> nprocs = 24
| 43> end
| 44>
| 45>
| 46>                          ****END OF INPUT****

CARTESIAN COORDINATES (ANGSTROEM)
---------------------------------
  Ir     0.000009    0.119441   -0.001134
  P      2.313164   -0.026854    0.000864
  C      3.266155    1.538041    0.001301
  C      2.990776   -0.938546    1.437922
  H      4.076753   -1.056364    1.355244
  H      4.080827   -1.059585   -1.345638
  H      2.508332   -1.918605    1.474823
  H      2.511934   -1.920062   -1.470843
  H      3.000883    2.123603    0.885753
  H      2.748975   -0.395301    2.355327
  C      2.995346   -0.940504   -1.432774
  H      4.343510    1.342437    0.003886
  H      2.757870   -0.397739   -2.351580
  H      3.004825    2.121649   -0.885628
  P     -2.313239   -0.026297    0.000821
  C     -3.266059    1.538685   -0.001751
  C     -2.995240   -0.942628   -1.431183
  H     -2.509974   -1.915937    1.477317
  H     -4.077346   -1.051885    1.357522
  H     -2.748166   -0.391240    2.356043
  C     -2.991181   -0.935299    1.439450
  H     -2.510085   -1.921339   -1.468610
  H     -4.080420   -1.063528   -1.342825
  H     -4.343438    1.343207   -0.001601
  H     -3.002541    2.121837   -0.888321
  H     -2.759672   -0.400400   -2.350803
  H     -3.002807    2.124611    0.883073
  C      0.000649    1.940082   -0.001490
  O      0.001240    3.110505   -0.001979
  Cl    -0.000683   -2.266357   -0.002005

 Total Charge           Charge          ....    0
 Multiplicity           Mult            ....    1
 Number of Electrons    NEL             ....  132
 Basis Dimension        Dim             ....  811

ORBITAL ENERGIES
----------------

  NO   OCC          E(Eh)            E(eV)
   0   2.0000    -101.444027     -2760.4323
   1   2.0000     -77.104168     -2098.1111
   2   2.0000     -77.104158     -2098.1108
   3   2.0000     -19.253365      -523.9107
   4   2.0000     -10.371478      -282.2223
   5   2.0000     -10.281418      -279.7716
   6   2.0000     -10.281416      -279.7716
   7   2.0000     -10.275297      -279.6050
   8   2.0000     -10.275285      -279.6047
   9   2.0000     -10.275280      -279.6046
  10   2.0000     -10.275240      -279.6035
  11   2.0000      -9.484121      -258.0761
  12   2.0000      -7.235428      -196.8860
  13   2.0000      -7.232185      -196.7978
  14   2.0000      -7.231540      -196.7802
  15   2.0000      -6.682971      -181.8529
  16   2.0000      -6.682962      -181.8526
  17   2.0000      -4.836747      -131.6146
  18   2.0000      -4.836738      -131.6143
  19   2.0000      -4.836429      -131.6059
  20   2.0000      -4.836420      -131.6057
  21   2.0000      -4.833131      -131.5162
  22   2.0000      -4.833121      -131.5159
  23   2.0000      -3.784538      -102.9825
  24   2.0000      -2.141623       -58.2765
  25   2.0000      -2.128797       -57.9275
  26   2.0000      -2.098814       -57.1116
  27   2.0000      -1.221472       -33.2379
  28   2.0000      -0.919621       -25.0242
  29   2.0000      -0.916495       -24.9391
  30   2.0000      -0.870755       -23.6944
  31   2.0000      -0.837350       -22.7855
  32   2.0000      -0.836331       -22.7577
  33   2.0000      -0.832794       -22.6615
  34   2.0000      -0.832750       -22.6603
  35   2.0000      -0.690729       -18.7957
  36   2.0000      -0.669924       -18.2295
  37   2.0000      -0.669037       -18.2054
  38   2.0000      -0.578346       -15.7376
  39   2.0000      -0.571821       -15.5600
  40   2.0000      -0.565453       -15.3868
  41   2.0000      -0.559171       -15.2158
  42   2.0000      -0.554028       -15.0759
  43   2.0000      -0.553120       -15.0511
  44   2.0000      -0.549231       -14.9453
  45   2.0000      -0.544162       -14.8074
  46   2.0000      -0.539014       -14.6673
  47   2.0000      -0.525124       -14.2894
  48   2.0000      -0.522443       -14.2164
  49   2.0000      -0.522279       -14.2119
  50   2.0000      -0.517766       -14.0891
  51   2.0000      -0.504882       -13.7385
  52   2.0000      -0.504466       -13.7272
  53   2.0000      -0.462841       -12.5946
  54   2.0000      -0.454976       -12.3805
  55   2.0000      -0.452703       -12.3187
  56   2.0000      -0.450772       -12.2661
  57   2.0000      -0.448369       -12.2007
  58   2.0000      -0.404308       -11.0018
  59   2.0000      -0.404206       -10.9990
  60   2.0000      -0.392594       -10.6830
  61   2.0000      -0.355301        -9.6682
  62   2.0000      -0.328530        -8.9398
  63   2.0000      -0.327579        -8.9139
  64   2.0000      -0.316320        -8.6075
  65   2.0000      -0.300693        -8.1823
  66   0.0000       0.033155         0.9022
  67   0.0000       0.048363         1.3160
  68   0.0000       0.049259         1.3404
  69   0.0000       0.057031         1.5519
  70   0.0000       0.070231         1.9111

MULLIKEN ATOMIC CHARGES
-----------------------
   0 Ir:    0.010978
   1 P :    0.448341
   2 C :   -0.342568
   3 C :   -0.303530
   4 H :    0.147033
   5 H :    0.146916
   6 H :    0.101198
   7 H :    0.100970
   8 H :    0.086482
   9 H :    0.058741
  10 C :   -0.303390
  11 H :    0.136362
  12 H :    0.058486
  13 H :    0.086553
  14 P :    0.448375
  15 C :   -0.342451
  16 C :   -0.303664
  17 H :    0.100948
  18 H :    0.147049
  19 H :    0.058829
  20 C :   -0.303245
  21 H :    0.101137
  22 H :    0.146856
  23 H :    0.136369
  24 H :    0.086584
  25 H :    0.058384
  26 H :    0.086485
  27 C :    0.205182
  28 O :   -0.431288
  29 Cl:   -0.628122
Sum of atomic charges:   -0.0000000

LOEWDIN ATOMIC CHARGES
----------------------
   0 Ir:    0.331867
   1 P :    0.711195
   2 C :   -0.024464
   3 C :   -0.027955
   4 H :   -0.045916
   5 H :   -0.045905
   6 H :   -0.079282
   7 H :   -0.079371
   8 H :   -0.047741
   9 H :   -0.049671
  10 C :   -0.027924
  11 H :   -0.046337
  12 H :   -0.049650
  13 H :   -0.047672
  14 P :    0.711170
  15 C :   -0.024458
  16 C :   -0.028042
  17 H :   -0.079100
  18 H :   -0.045923
  19 H :   -0.049701
  20 C :   -0.027903
  21 H :   -0.079721
  22 H :   -0.045902
  23 H :   -0.046340
  24 H :   -0.047720
  25 H :   -0.049623
  26 H :   -0.047705
  27 C :   -0.495515
  28 O :    0.016554
  29 Cl:   -0.131243

  Mayer bond orders larger than 0.100000
B(  0-Ir,  1-P ) :   0.8577 B(  0-Ir, 14-P ) :   0.8579 B(  0-Ir, 27-C ) :   1.8201
B(  0-Ir, 28-O ) :   0.1912 B(  0-Ir, 29-Cl) :   0.4007 B(  1-P ,  2-C ) :   0.8185
B(  1-P ,  3-C ) :   0.9046 B(  1-P , 10-C ) :   0.9052 B(  1-P , 29-Cl) :   0.2287
B(  2-C ,  8-H ) :   0.9880 B(  2-C , 11-H ) :   0.9705 B(  2-C , 13-H ) :   0.9880
B(  3-C ,  4-H ) :   0.9512 B(  3-C ,  6-H ) :   0.9714 B(  3-C ,  9-H ) :   0.9987
B(  5-H , 10-C ) :   0.9513 B(  7-H , 10-C ) :   0.9714 B( 10-C , 12-H ) :   0.9987
B( 14-P , 15-C ) :   0.8184 B( 14-P , 16-C ) :   0.9050 B( 14-P , 20-C ) :   0.9048
B( 14-P , 29-Cl) :   0.2289 B( 15-C , 23-H ) :   0.9705 B( 15-C , 24-H ) :   0.9880
B( 15-C , 26-H ) :   0.9879 B( 16-C , 21-H ) :   0.9714 B( 16-C , 22-H ) :   0.9513
B( 16-C , 25-H ) :   0.9989 B( 17-H , 20-C ) :   0.9714 B( 18-H , 20-C ) :   0.9512
B( 19-H , 20-C ) :   0.9985 B( 27-C , 28-O ) :   2.0710

FINAL SINGLE POINT ENERGY     -1600.172782662342

DIPOLE MOMENT
-------------
                                X             Y             Z
Electronic contribution:      0.00111      16.12169      -0.17777
Nuclear contribution   :     -0.00090     -15.69990       0.18198
                        -----------------------------------------
Total Dipole Moment    :      0.00021       0.42179       0.00420
                        -----------------------------------------
Magnitude (a.u.)       :      0.42182
Magnitude (Debye)      :      1.07217

Rotational constants in cm-1:     0.025294     0.012430     0.009680
Rotational constants in MHz :   758.298673   372.651784   290.199928

                             ****ORCA TERMINATED NORMALLY****
TOTAL RUN TIME: 0 days 0 hours 9 minutes 22 seconds 282 msec
