                         Program Version 4.2.0 -  RELEASE  -
|  1> #
|  2> # MOR16_ed33 wB97X-V/Def2-TZVPPD
|  3> #
|  4> ! wb97x-v def2-tzvppd def2/jk grid4 nofinalgrid
|  5>
|  6> *xyz 0 1
|  7> Ru      -0.022566   -0.070875   -0.379144
|  8> P        0.186586   -1.836138    1.061273
|  9> P       -0.107348    1.786969    0.983128
| 10> P       -2.337688   -0.031549   -0.574608
| 11> P        2.258415    0.217420   -0.654771
| 12> H       -1.011320    0.631023   -2.964588
| 13> C       -0.084126    0.244754   -2.536818
| 14> C        0.002235   -1.177677   -2.238071
| 15> H       -0.861138   -1.806799   -2.436001
| 16> C       -1.265405   -2.900768    1.510519
| 17> C        0.882199   -1.676365    2.777543
| 18> C        1.273276   -3.202818    0.434593
| 19> C       -0.218657    3.482246    0.220382
| 20> C       -1.474202    1.984957    2.229068
| 21> C        1.261931    2.159069    2.186793
| 22> C       -3.132442   -1.089929   -1.868209
| 23> C       -3.503325   -0.454941    0.806619
| 24> C       -3.065826    1.589188   -1.096490
| 25> C        3.115513   -0.738567   -1.988082
| 26> C        3.484163   -0.113039    0.695104
| 27> C        2.817918    1.905477   -1.167131
| 28> H        0.775994    0.734504   -2.997508
| 29> H        0.923698   -1.705224   -2.468332
| 30> H       -1.797994   -3.196368    0.601740
| 31> H       -1.951513   -2.343187    2.152343
| 32> H       -0.940552   -3.802999    2.042563
| 33> H        0.220858   -1.033459    3.367392
| 34> H        1.866404   -1.203417    2.738274
| 35> H        0.973380   -2.648584    3.278375
| 36> H        0.869924   -3.550933   -0.520488
| 37> H        1.326184   -4.042772    1.138076
| 38> H        2.284288   -2.829356    0.252702
| 39> H       -0.255493    4.275719    0.977504
| 40> H       -1.111307    3.540133   -0.406666
| 41> H        0.646533    3.642441   -0.427500
| 42> H       -1.340744    2.904812    2.810047
| 43> H       -1.464232    1.128616    2.910406
| 44> H       -2.450699    2.022913    1.741739
| 45> H        1.024646    3.051958    2.776564
| 46> H        2.206281    2.332826    1.666415
| 47> H        1.391528    1.309503    2.862930
| 48> H       -4.214574   -0.920776   -1.864995
| 49> H       -2.933677   -2.144929   -1.660324
| 50> H       -2.737237   -0.849967   -2.858203
| 51> H       -4.496496   -0.037297    0.606865
| 52> H       -3.139236   -0.075571    1.761748
| 53> H       -3.591401   -1.541056    0.877459
| 54> H       -4.128475    1.484093   -1.343350
| 55> H       -2.520683    1.955160   -1.969951
| 56> H       -2.964031    2.325987   -0.296631
| 57> H        4.171126   -0.449128   -2.023284
| 58> H        2.657332   -0.533147   -2.958558
| 59> H        3.043678   -1.811163   -1.790971
| 60> H        4.490887    0.184953    0.381316
| 61> H        3.492626   -1.181661    0.925550
| 62> H        3.218142    0.429172    1.603169
| 63> H        3.886252    1.913189   -1.411457
| 64> H        2.634640    2.627880   -0.369051
| 65> H        2.240286    2.211368   -2.043241
| 66> *
| 67>
| 68> %maxcore 5000
| 69>
| 70> %pal
| 71> nprocs = 24
| 72> end
| 73>
| 74>
| 75>                          ****END OF INPUT****

CARTESIAN COORDINATES (ANGSTROEM)
---------------------------------
  Ru    -0.022566   -0.070875   -0.379144
  P      0.186586   -1.836138    1.061273
  P     -0.107348    1.786969    0.983128
  P     -2.337688   -0.031549   -0.574608
  P      2.258415    0.217420   -0.654771
  H     -1.011320    0.631023   -2.964588
  C     -0.084126    0.244754   -2.536818
  C      0.002235   -1.177677   -2.238071
  H     -0.861138   -1.806799   -2.436001
  C     -1.265405   -2.900768    1.510519
  C      0.882199   -1.676365    2.777543
  C      1.273276   -3.202818    0.434593
  C     -0.218657    3.482246    0.220382
  C     -1.474202    1.984957    2.229068
  C      1.261931    2.159069    2.186793
  C     -3.132442   -1.089929   -1.868209
  C     -3.503325   -0.454941    0.806619
  C     -3.065826    1.589188   -1.096490
  C      3.115513   -0.738567   -1.988082
  C      3.484163   -0.113039    0.695104
  C      2.817918    1.905477   -1.167131
  H      0.775994    0.734504   -2.997508
  H      0.923698   -1.705224   -2.468332
  H     -1.797994   -3.196368    0.601740
  H     -1.951513   -2.343187    2.152343
  H     -0.940552   -3.802999    2.042563
  H      0.220858   -1.033459    3.367392
  H      1.866404   -1.203417    2.738274
  H      0.973380   -2.648584    3.278375
  H      0.869924   -3.550933   -0.520488
  H      1.326184   -4.042772    1.138076
  H      2.284288   -2.829356    0.252702
  H     -0.255493    4.275719    0.977504
  H     -1.111307    3.540133   -0.406666
  H      0.646533    3.642441   -0.427500
  H     -1.340744    2.904812    2.810047
  H     -1.464232    1.128616    2.910406
  H     -2.450699    2.022913    1.741739
  H      1.024646    3.051958    2.776564
  H      2.206281    2.332826    1.666415
  H      1.391528    1.309503    2.862930
  H     -4.214574   -0.920776   -1.864995
  H     -2.933677   -2.144929   -1.660324
  H     -2.737237   -0.849967   -2.858203
  H     -4.496496   -0.037297    0.606865
  H     -3.139236   -0.075571    1.761748
  H     -3.591401   -1.541056    0.877459
  H     -4.128475    1.484093   -1.343350
  H     -2.520683    1.955160   -1.969951
  H     -2.964031    2.325987   -0.296631
  H      4.171126   -0.449128   -2.023284
  H      2.657332   -0.533147   -2.958558
  H      3.043678   -1.811163   -1.790971
  H      4.490887    0.184953    0.381316
  H      3.492626   -1.181661    0.925550
  H      3.218142    0.429172    1.603169
  H      3.886252    1.913189   -1.411457
  H      2.634640    2.627880   -0.369051
  H      2.240286    2.211368   -2.043241

 Total Charge           Charge          ....    0
 Multiplicity           Mult            ....    1
 Number of Electrons    NEL             ....  200
 Basis Dimension        Dim             .... 1446

ORBITAL ENERGIES
----------------

  NO   OCC          E(Eh)            E(eV)
   0   2.0000     -77.082069     -2097.5097
   1   2.0000     -77.080460     -2097.4660
   2   2.0000     -77.077162     -2097.3762
   3   2.0000     -77.073496     -2097.2765
   4   2.0000     -10.264438      -279.3096
   5   2.0000     -10.261875      -279.2398
   6   2.0000     -10.260705      -279.2080
   7   2.0000     -10.260642      -279.2063
   8   2.0000     -10.260196      -279.1941
   9   2.0000     -10.259445      -279.1737
  10   2.0000     -10.258878      -279.1583
  11   2.0000     -10.258549      -279.1493
  12   2.0000     -10.257376      -279.1174
  13   2.0000     -10.256960      -279.1061
  14   2.0000     -10.253552      -279.0133
  15   2.0000     -10.253501      -279.0119
  16   2.0000     -10.221501      -278.1412
  17   2.0000     -10.214599      -277.9534
  18   2.0000      -6.659197      -181.2060
  19   2.0000      -6.657677      -181.1646
  20   2.0000      -6.653051      -181.0387
  21   2.0000      -6.649575      -180.9441
  22   2.0000      -4.813310      -130.9768
  23   2.0000      -4.813083      -130.9706
  24   2.0000      -4.811768      -130.9349
  25   2.0000      -4.811567      -130.9294
  26   2.0000      -4.808759      -130.8530
  27   2.0000      -4.807359      -130.8149
  28   2.0000      -4.807213      -130.8109
  29   2.0000      -4.806933      -130.8033
  30   2.0000      -4.803750      -130.7167
  31   2.0000      -4.803565      -130.7116
  32   2.0000      -4.802656      -130.6869
  33   2.0000      -4.799186      -130.5925
  34   2.0000      -3.067429       -83.4690
  35   2.0000      -1.918878       -52.2153
  36   2.0000      -1.912197       -52.0335
  37   2.0000      -1.905321       -51.8464
  38   2.0000      -0.905361       -24.6361
  39   2.0000      -0.898847       -24.4589
  40   2.0000      -0.891007       -24.2455
  41   2.0000      -0.888973       -24.1902
  42   2.0000      -0.836115       -22.7518
  43   2.0000      -0.822949       -22.3936
  44   2.0000      -0.820676       -22.3317
  45   2.0000      -0.819712       -22.3055
  46   2.0000      -0.812659       -22.1136
  47   2.0000      -0.810675       -22.0596
  48   2.0000      -0.810216       -22.0471
  49   2.0000      -0.809324       -22.0228
  50   2.0000      -0.807700       -21.9786
  51   2.0000      -0.671173       -18.2635
  52   2.0000      -0.664631       -18.0855
  53   2.0000      -0.653912       -17.7938
  54   2.0000      -0.649183       -17.6652
  55   2.0000      -0.647341       -17.6151
  56   2.0000      -0.574393       -15.6300
  57   2.0000      -0.571655       -15.5555
  58   2.0000      -0.562742       -15.3130
  59   2.0000      -0.556603       -15.1459
  60   2.0000      -0.549599       -14.9554
  61   2.0000      -0.546057       -14.8590
  62   2.0000      -0.542306       -14.7569
  63   2.0000      -0.539087       -14.6693
  64   2.0000      -0.533389       -14.5142
  65   2.0000      -0.529708       -14.4141
  66   2.0000      -0.525201       -14.2915
  67   2.0000      -0.521326       -14.1860
  68   2.0000      -0.518926       -14.1207
  69   2.0000      -0.507368       -13.8062
  70   2.0000      -0.503602       -13.7037
  71   2.0000      -0.501873       -13.6567
  72   2.0000      -0.498032       -13.5521
  73   2.0000      -0.495521       -13.4838
  74   2.0000      -0.494120       -13.4457
  75   2.0000      -0.491942       -13.3864
  76   2.0000      -0.488658       -13.2970
  77   2.0000      -0.486873       -13.2485
  78   2.0000      -0.485287       -13.2053
  79   2.0000      -0.484256       -13.1773
  80   2.0000      -0.481198       -13.0941
  81   2.0000      -0.477103       -12.9826
  82   2.0000      -0.440348       -11.9825
  83   2.0000      -0.437203       -11.8969
  84   2.0000      -0.431005       -11.7282
  85   2.0000      -0.428765       -11.6673
  86   2.0000      -0.425672       -11.5831
  87   2.0000      -0.421241       -11.4625
  88   2.0000      -0.416123       -11.3233
  89   2.0000      -0.414621       -11.2824
  90   2.0000      -0.411416       -11.1952
  91   2.0000      -0.407929       -11.1003
  92   2.0000      -0.393042       -10.6952
  93   2.0000      -0.384191       -10.4544
  94   2.0000      -0.337387        -9.1808
  95   2.0000      -0.329636        -8.9698
  96   2.0000      -0.286188        -7.7876
  97   2.0000      -0.282350        -7.6831
  98   2.0000      -0.261763        -7.1229
  99   2.0000      -0.234412        -6.3787
 100   0.0000       0.046859         1.2751
 101   0.0000       0.059155         1.6097
 102   0.0000       0.062080         1.6893
 103   0.0000       0.065233         1.7751
 104   0.0000       0.077826         2.1178

MULLIKEN ATOMIC CHARGES
-----------------------
   0 Ru:   -1.668569
   1 P :    1.461748
   2 P :    1.143178
   3 P :    1.256690
   4 P :    0.955766
   5 H :    0.051341
   6 C :   -0.457926
   7 C :    0.191330
   8 H :   -0.055434
   9 C :   -0.540045
  10 C :   -0.522191
  11 C :   -0.555127
  12 C :   -0.732478
  13 C :   -0.426443
  14 C :   -0.416906
  15 C :   -0.613033
  16 C :   -0.468937
  17 C :   -0.616701
  18 C :   -0.632544
  19 C :   -0.434405
  20 C :   -0.535380
  21 H :    0.034361
  22 H :    0.034670
  23 H :    0.049554
  24 H :    0.072423
  25 H :    0.162189
  26 H :    0.042533
  27 H :    0.058686
  28 H :    0.156294
  29 H :    0.042120
  30 H :    0.156803
  31 H :    0.038415
  32 H :    0.128543
  33 H :    0.080208
  34 H :    0.089461
  35 H :    0.151693
  36 H :    0.044515
  37 H :    0.082934
  38 H :    0.157843
  39 H :    0.067200
  40 H :    0.062527
  41 H :    0.176177
  42 H :    0.052191
  43 H :    0.129668
  44 H :    0.170826
  45 H :    0.019518
  46 H :    0.114085
  47 H :    0.145316
  48 H :    0.051865
  49 H :    0.085235
  50 H :    0.188782
  51 H :    0.133777
  52 H :    0.075039
  53 H :    0.162562
  54 H :    0.078303
  55 H :    0.047745
  56 H :    0.153668
  57 H :    0.072005
  58 H :    0.046329
Sum of atomic charges:    0.0000000

LOEWDIN ATOMIC CHARGES
----------------------
   0 Ru:    0.075838
   1 P :    0.781474
   2 P :    0.769386
   3 P :    0.828242
   4 P :    0.823278
   5 H :   -0.095430
   6 C :   -0.151169
   7 C :   -0.162129
   8 H :   -0.097668
   9 C :   -0.038833
  10 C :   -0.031345
  11 C :   -0.028194
  12 C :   -0.012104
  13 C :   -0.038410
  14 C :   -0.033727
  15 C :   -0.024358
  16 C :   -0.018661
  17 C :   -0.022453
  18 C :   -0.018054
  19 C :   -0.015992
  20 C :   -0.017390
  21 H :   -0.094531
  22 H :   -0.099279
  23 H :   -0.059694
  24 H :   -0.070569
  25 H :   -0.052942
  26 H :   -0.064344
  27 H :   -0.081663
  28 H :   -0.051768
  29 H :   -0.053632
  30 H :   -0.053337
  31 H :   -0.087447
  32 H :   -0.050936
  33 H :   -0.074447
  34 H :   -0.073050
  35 H :   -0.051934
  36 H :   -0.060189
  37 H :   -0.085608
  38 H :   -0.051213
  39 H :   -0.085432
  40 H :   -0.066104
  41 H :   -0.047765
  42 H :   -0.054823
  43 H :   -0.056457
  44 H :   -0.045953
  45 H :   -0.079968
  46 H :   -0.071013
  47 H :   -0.050057
  48 H :   -0.058665
  49 H :   -0.084589
  50 H :   -0.048794
  51 H :   -0.055337
  52 H :   -0.058717
  53 H :   -0.046230
  54 H :   -0.071228
  55 H :   -0.083470
  56 H :   -0.049051
  57 H :   -0.086000
  58 H :   -0.056068

  Mayer bond orders larger than 0.100000
B(  0-Ru,  1-P ) :   0.6563 B(  0-Ru,  2-P ) :   0.7981 B(  0-Ru,  3-P ) :   0.6444
B(  0-Ru,  4-P ) :   0.7013 B(  0-Ru,  5-H ) :   0.1119 B(  0-Ru,  6-C ) :   1.0729
B(  0-Ru,  7-C ) :   0.7747 B(  0-Ru, 11-C ) :   0.1978 B(  0-Ru, 21-H ) :   0.1450
B(  1-P ,  2-P ) :   0.3481 B(  1-P ,  4-P ) :   0.1886 B(  1-P ,  9-C ) :   0.6018
B(  1-P , 10-C ) :   0.6619 B(  1-P , 11-C ) :   0.7284 B(  2-P ,  3-P ) :   0.1067
B(  2-P ,  4-P ) :   0.1459 B(  2-P , 12-C ) :   0.7541 B(  2-P , 13-C ) :   0.3979
B(  2-P , 14-C ) :   0.4143 B(  3-P ,  4-P ) :   0.2127 B(  3-P ,  6-C ) :   0.2023
B(  3-P ,  7-C ) :  -0.2401 B(  3-P , 15-C ) :   0.5306 B(  3-P , 16-C ) :   0.6107
B(  3-P , 17-C ) :   0.6331 B(  4-P ,  6-C ) :   0.1699 B(  4-P ,  7-C ) :  -0.1898
B(  4-P , 18-C ) :   0.6228 B(  4-P , 19-C ) :   0.6782 B(  4-P , 20-C ) :   0.5264
B(  5-H ,  6-C ) :   1.0694 B(  6-C ,  7-C ) :   0.9629 B(  6-C , 21-H ) :   1.0273
B(  7-C ,  8-H ) :   1.1038 B(  7-C , 22-H ) :   1.0570 B(  9-C , 10-C ) :   0.1448
B(  9-C , 11-C ) :   0.1634 B(  9-C , 23-H ) :   1.0063 B(  9-C , 24-H ) :   0.9645
B(  9-C , 25-H ) :   0.9114 B( 10-C , 11-C ) :   0.1278 B( 10-C , 26-H ) :   0.9866
B( 10-C , 27-H ) :   0.9932 B( 10-C , 28-H ) :   0.9523 B( 11-C , 29-H ) :   0.9856
B( 11-C , 30-H ) :   0.9576 B( 11-C , 31-H ) :   0.9698 B( 12-C , 13-C ) :   0.1368
B( 12-C , 14-C ) :   0.1422 B( 12-C , 32-H ) :   0.9848 B( 12-C , 33-H ) :   1.0058
B( 12-C , 34-H ) :   1.0216 B( 13-C , 14-C ) :   0.1992 B( 13-C , 35-H ) :   0.9466
B( 13-C , 36-H ) :   1.0043 B( 13-C , 37-H ) :   0.9441 B( 14-C , 38-H ) :   0.9249
B( 14-C , 39-H ) :   0.9326 B( 14-C , 40-H ) :   1.0007 B( 15-C , 16-C ) :   0.1690
B( 15-C , 17-C ) :   0.1785 B( 15-C , 41-H ) :   0.9308 B( 15-C , 42-H ) :   1.0173
B( 15-C , 43-H ) :   0.9771 B( 16-C , 17-C ) :   0.1106 B( 16-C , 44-H ) :   0.9214
B( 16-C , 45-H ) :   1.0324 B( 16-C , 46-H ) :   0.9333 B( 17-C , 47-H ) :   0.9753
B( 17-C , 48-H ) :   0.9708 B( 17-C , 49-H ) :   0.9903 B( 18-C , 19-C ) :   0.1263
B( 18-C , 20-C ) :   0.1464 B( 18-C , 50-H ) :   0.9104 B( 18-C , 51-H ) :   0.9907
B( 18-C , 52-H ) :   0.9986 B( 19-C , 20-C ) :   0.1207 B( 19-C , 53-H ) :   0.9181
B( 19-C , 54-H ) :   0.9466 B( 19-C , 55-H ) :   0.9908 B( 20-C , 56-H ) :   0.9536
B( 20-C , 57-H ) :   0.9833 B( 20-C , 58-H ) :   0.9794 B( 38-H , 40-H ) :   0.1004
B( 39-H , 40-H ) :   0.1139

FINAL SINGLE POINT ENERGY     -2017.934741905614

DIPOLE MOMENT
-------------
                                X             Y             Z
Electronic contribution:     -1.79693      -5.11936     -26.79325
Nuclear contribution   :      1.82563       5.30534      27.72313
                        -----------------------------------------
Total Dipole Moment    :      0.02870       0.18598       0.92988
                        -----------------------------------------
Magnitude (a.u.)       :      0.94873
Magnitude (Debye)      :      2.41148

Rotational constants in cm-1:     0.009351     0.007693     0.006898
Rotational constants in MHz :   280.325632   230.636339   206.809498

                             ****ORCA TERMINATED NORMALLY****
TOTAL RUN TIME: 0 days 1 hours 13 minutes 27 seconds 460 msec
