                         Program Version 4.2.0 -  RELEASE  -
|  1> #
|  2> # MOR14_ed26 wB97X-V/Def2-TZVPPD
|  3> #
|  4> ! wb97x-v def2-tzvppd def2/jk grid4 nofinalgrid
|  5>
|  6> *xyz 0 1
|  7> Ru      -0.064344   -0.175682   -0.012222
|  8> C        1.546320    1.136494   -0.983353
|  9> C        1.182588    1.622095    0.326342
| 10> C        2.076803   -0.497674    0.579629
| 11> C        2.043947   -0.183601   -0.846926
| 12> C        1.561141    0.611266    1.297590
| 13> C        1.492783    1.931783   -2.249249
| 14> H        0.696535    2.680581   -2.225612
| 15> H        1.338709    1.291322   -3.121811
| 16> H        2.442862    2.463439   -2.390633
| 17> C        2.565540   -1.075324   -1.928175
| 18> H        2.249514   -0.728507   -2.915600
| 19> H        2.192282   -2.094362   -1.786204
| 20> H        3.663236   -1.101421   -1.912436
| 21> C        2.692583   -1.723434    1.172166
| 22> H        3.783501   -1.598681    1.210971
| 23> H        2.457484   -2.606090    0.574387
| 24> H        2.333089   -1.899010    2.188816
| 25> C        1.552612    0.773239    2.786124
| 26> H        2.502734    1.205302    3.127194
| 27> H        1.421923   -0.187720    3.289969
| 28> H        0.754394    1.442873    3.118115
| 29> C        0.799428    3.031668    0.660505
| 30> H        1.693878    3.613580    0.920796
| 31> H        0.118442    3.075561    1.514596
| 32> H        0.315927    3.528553   -0.183556
| 33> Cl      -0.006885   -2.617235   -0.279085
| 34> C       -1.774511   -0.580489   -1.372668
| 35> C       -1.428717    0.775607   -1.463600
| 36> C       -2.230150    1.901113   -0.842184
| 37> C       -2.597560    1.596364    0.619137
| 38> C       -1.528383    0.747182    1.301561
| 39> C       -1.615603   -0.659023    1.435525
| 40> C       -2.738883   -1.472042    0.832207
| 41> C       -3.001399   -1.117797   -0.653050
| 42> H       -3.131417    2.097786   -1.444322
| 43> H       -3.561641    1.080890    0.673312
| 44> H       -1.631000    2.816891   -0.882167
| 45> H       -3.816216   -0.389170   -0.734954
| 46> H       -1.353755   -1.240657   -2.123162
| 47> H       -0.836828    1.063474   -2.328552
| 48> H       -3.337183   -2.018298   -1.174989
| 49> H       -2.460187   -2.525401    0.898608
| 50> H       -1.127422   -1.117347    2.293712
| 51> H       -3.660878   -1.338434    1.419672
| 52> H       -2.720080    2.533691    1.172959
| 53> H       -0.970929    1.269583    2.073632
| 54> *
| 55>
| 56> %maxcore 5000
| 57>
| 58> %pal
| 59> nprocs = 24
| 60> end
| 61>
| 62>
| 63>                          ****END OF INPUT****

CARTESIAN COORDINATES (ANGSTROEM)
---------------------------------
  Ru    -0.064344   -0.175682   -0.012222
  C      1.546320    1.136494   -0.983353
  C      1.182588    1.622095    0.326342
  C      2.076803   -0.497674    0.579629
  C      2.043947   -0.183601   -0.846926
  C      1.561141    0.611266    1.297590
  C      1.492783    1.931783   -2.249249
  H      0.696535    2.680581   -2.225612
  H      1.338709    1.291322   -3.121811
  H      2.442862    2.463439   -2.390633
  C      2.565540   -1.075324   -1.928175
  H      2.249514   -0.728507   -2.915600
  H      2.192282   -2.094362   -1.786204
  H      3.663236   -1.101421   -1.912436
  C      2.692583   -1.723434    1.172166
  H      3.783501   -1.598681    1.210971
  H      2.457484   -2.606090    0.574387
  H      2.333089   -1.899010    2.188816
  C      1.552612    0.773239    2.786124
  H      2.502734    1.205302    3.127194
  H      1.421923   -0.187720    3.289969
  H      0.754394    1.442873    3.118115
  C      0.799428    3.031668    0.660505
  H      1.693878    3.613580    0.920796
  H      0.118442    3.075561    1.514596
  H      0.315927    3.528553   -0.183556
  Cl    -0.006885   -2.617235   -0.279085
  C     -1.774511   -0.580489   -1.372668
  C     -1.428717    0.775607   -1.463600
  C     -2.230150    1.901113   -0.842184
  C     -2.597560    1.596364    0.619137
  C     -1.528383    0.747182    1.301561
  C     -1.615603   -0.659023    1.435525
  C     -2.738883   -1.472042    0.832207
  C     -3.001399   -1.117797   -0.653050
  H     -3.131417    2.097786   -1.444322
  H     -3.561641    1.080890    0.673312
  H     -1.631000    2.816891   -0.882167
  H     -3.816216   -0.389170   -0.734954
  H     -1.353755   -1.240657   -2.123162
  H     -0.836828    1.063474   -2.328552
  H     -3.337183   -2.018298   -1.174989
  H     -2.460187   -2.525401    0.898608
  H     -1.127422   -1.117347    2.293712
  H     -3.660878   -1.338434    1.419672
  H     -2.720080    2.533691    1.172959
  H     -0.970929    1.269583    2.073632

 Total Charge           Charge          ....    0
 Multiplicity           Mult            ....    1
 Number of Electrons    NEL             ....  168
 Basis Dimension        Dim             .... 1232

ORBITAL ENERGIES
----------------

  NO   OCC          E(Eh)            E(eV)
   0   2.0000    -101.418814     -2759.7462
   1   2.0000     -10.308205      -280.5005
   2   2.0000     -10.303366      -280.3689
   3   2.0000     -10.301287      -280.3123
   4   2.0000     -10.300181      -280.2822
   5   2.0000     -10.295517      -280.1553
   6   2.0000     -10.285184      -279.8741
   7   2.0000     -10.284385      -279.8523
   8   2.0000     -10.283224      -279.8207
   9   2.0000     -10.281154      -279.7644
  10   2.0000     -10.280586      -279.7490
  11   2.0000     -10.275220      -279.6030
  12   2.0000     -10.274260      -279.5768
  13   2.0000     -10.272238      -279.5218
  14   2.0000     -10.270322      -279.4697
  15   2.0000     -10.265005      -279.3250
  16   2.0000     -10.262348      -279.2527
  17   2.0000     -10.262134      -279.2469
  18   2.0000     -10.256348      -279.0894
  19   2.0000      -9.458916      -257.3902
  20   2.0000      -7.211129      -196.2248
  21   2.0000      -7.206300      -196.0934
  22   2.0000      -7.206123      -196.0886
  23   2.0000      -3.135858       -85.3310
  24   2.0000      -1.994516       -54.2735
  25   2.0000      -1.977054       -53.7984
  26   2.0000      -1.968091       -53.5545
  27   2.0000      -1.041060       -28.3287
  28   2.0000      -0.971212       -26.4280
  29   2.0000      -0.929075       -25.2814
  30   2.0000      -0.922685       -25.1075
  31   2.0000      -0.908938       -24.7335
  32   2.0000      -0.902137       -24.5484
  33   2.0000      -0.865360       -23.5476
  34   2.0000      -0.854436       -23.2504
  35   2.0000      -0.852865       -23.2076
  36   2.0000      -0.840110       -22.8606
  37   2.0000      -0.819272       -22.2935
  38   2.0000      -0.793453       -21.5910
  39   2.0000      -0.762491       -20.7484
  40   2.0000      -0.752912       -20.4878
  41   2.0000      -0.718064       -19.5395
  42   2.0000      -0.673508       -18.3271
  43   2.0000      -0.647893       -17.6301
  44   2.0000      -0.645920       -17.5764
  45   2.0000      -0.633782       -17.2461
  46   2.0000      -0.613163       -16.6850
  47   2.0000      -0.593473       -16.1492
  48   2.0000      -0.582648       -15.8547
  49   2.0000      -0.577266       -15.7082
  50   2.0000      -0.570411       -15.5217
  51   2.0000      -0.552208       -15.0264
  52   2.0000      -0.549350       -14.9486
  53   2.0000      -0.543627       -14.7928
  54   2.0000      -0.536925       -14.6105
  55   2.0000      -0.536065       -14.5871
  56   2.0000      -0.527043       -14.3416
  57   2.0000      -0.522550       -14.2193
  58   2.0000      -0.520569       -14.1654
  59   2.0000      -0.515507       -14.0277
  60   2.0000      -0.512062       -13.9339
  61   2.0000      -0.510490       -13.8911
  62   2.0000      -0.498094       -13.5538
  63   2.0000      -0.488359       -13.2889
  64   2.0000      -0.487615       -13.2687
  65   2.0000      -0.473033       -12.8719
  66   2.0000      -0.470562       -12.8046
  67   2.0000      -0.458940       -12.4884
  68   2.0000      -0.456930       -12.4337
  69   2.0000      -0.453332       -12.3358
  70   2.0000      -0.448459       -12.2032
  71   2.0000      -0.446050       -12.1376
  72   2.0000      -0.423548       -11.5253
  73   2.0000      -0.417406       -11.3582
  74   2.0000      -0.397711       -10.8223
  75   2.0000      -0.382018       -10.3952
  76   2.0000      -0.374499       -10.1906
  77   2.0000      -0.368099       -10.0165
  78   2.0000      -0.362457        -9.8630
  79   2.0000      -0.346280        -9.4228
  80   2.0000      -0.339395        -9.2354
  81   2.0000      -0.313067        -8.5190
  82   2.0000      -0.308916        -8.4060
  83   2.0000      -0.287565        -7.8250
  84   0.0000       0.042741         1.1630
  85   0.0000       0.046534         1.2663
  86   0.0000       0.058019         1.5788
  87   0.0000       0.062318         1.6958
  88   0.0000       0.066902         1.8205

MULLIKEN ATOMIC CHARGES
-----------------------
   0 Ru:   -2.412461
   1 C :    0.121277
   2 C :    1.143922
   3 C :    0.489927
   4 C :    0.448638
   5 C :    0.825474
   6 C :   -0.640730
   7 H :    0.121908
   8 H :    0.124489
   9 H :    0.085328
  10 C :   -0.780747
  11 H :    0.084589
  12 H :    0.076932
  13 H :    0.131764
  14 C :   -0.678484
  15 H :    0.133287
  16 H :    0.069829
  17 H :    0.058933
  18 C :   -0.617501
  19 H :    0.102241
  20 H :    0.092282
  21 H :    0.054167
  22 C :   -0.565330
  23 H :    0.136905
  24 H :    0.015998
  25 H :    0.068762
  26 Cl:   -0.488432
  27 C :   -0.841840
  28 C :    1.206318
  29 C :   -0.197608
  30 C :   -0.492127
  31 C :    0.215571
  32 C :    0.653978
  33 C :   -0.173262
  34 C :    0.096284
  35 H :    0.165368
  36 H :    0.071945
  37 H :    0.029727
  38 H :    0.039853
  39 H :   -0.052675
  40 H :    0.433065
  41 H :    0.078127
  42 H :    0.129535
  43 H :   -0.185199
  44 H :    0.189934
  45 H :    0.121237
  46 H :    0.308802
Sum of atomic charges:   -0.0000000

LOEWDIN ATOMIC CHARGES
----------------------
   0 Ru:    0.971310
   1 C :   -0.207191
   2 C :   -0.223263
   3 C :   -0.255485
   4 C :   -0.235791
   5 C :   -0.229946
   6 C :    0.170795
   7 H :   -0.016447
   8 H :   -0.009332
   9 H :    0.012456
  10 C :    0.162589
  11 H :   -0.013508
  12 H :   -0.047870
  13 H :    0.004492
  14 C :    0.143153
  15 H :    0.007796
  16 H :   -0.060313
  17 H :   -0.011659
  18 C :    0.182008
  19 H :    0.008972
  20 H :   -0.007139
  21 H :   -0.020646
  22 C :    0.181920
  23 H :    0.009134
  24 H :   -0.014234
  25 H :   -0.021751
  26 Cl:    0.159148
  27 C :   -0.151423
  28 C :   -0.093669
  29 C :   -0.008920
  30 C :    0.001627
  31 C :   -0.100445
  32 C :   -0.153432
  33 C :   -0.062516
  34 C :   -0.019632
  35 H :    0.025006
  36 H :    0.002691
  37 H :   -0.007569
  38 H :    0.003911
  39 H :   -0.035476
  40 H :   -0.019307
  41 H :    0.015459
  42 H :   -0.027618
  43 H :   -0.006260
  44 H :    0.019431
  45 H :    0.016235
  46 H :   -0.037289

  Mayer bond orders larger than 0.100000
B(  0-Ru,  1-C ) :   0.9164 B(  0-Ru,  2-C ) :   0.3765 B(  0-Ru,  3-C ) :   0.3371
B(  0-Ru,  4-C ) :   0.3820 B(  0-Ru, 10-C ) :   0.2682 B(  0-Ru, 14-C ) :   0.1540
B(  0-Ru, 18-C ) :   0.1254 B(  0-Ru, 22-C ) :   0.1037 B(  0-Ru, 26-Cl) :   0.8307
B(  0-Ru, 27-C ) :   1.4144 B(  0-Ru, 28-C ) :  -0.4571 B(  0-Ru, 29-C ) :   0.5920
B(  0-Ru, 30-C ) :   0.1818 B(  0-Ru, 31-C ) :   0.7613 B(  0-Ru, 32-C ) :   0.3531
B(  0-Ru, 33-C ) :   0.1957 B(  0-Ru, 34-C ) :   0.1344 B(  0-Ru, 39-H ) :   0.1555
B(  0-Ru, 40-H ) :  -0.1595 B(  1-C ,  2-C ) :  -0.1330 B(  1-C ,  3-C ) :  -0.2223
B(  1-C ,  4-C ) :   0.6392 B(  1-C ,  5-C ) :  -0.4264 B(  1-C ,  6-C ) :   1.0185
B(  1-C ,  8-H ) :  -0.1224 B(  1-C , 10-C ) :  -0.1651 B(  1-C , 26-Cl) :   0.1396
B(  2-C ,  4-C ) :  -0.4006 B(  2-C ,  5-C ) :   0.3184 B(  2-C ,  6-C ) :  -0.3007
B(  2-C , 10-C ) :   0.1506 B(  2-C , 18-C ) :  -0.2090 B(  2-C , 22-C ) :   0.7663
B(  2-C , 27-C ) :  -0.4961 B(  2-C , 28-C ) :   0.1776 B(  2-C , 29-C ) :  -0.1199
B(  2-C , 31-C ) :  -0.2185 B(  3-C ,  4-C ) :   0.5206 B(  3-C ,  5-C ) :   1.0138
B(  3-C , 12-H ) :   0.1214 B(  3-C , 14-C ) :   1.0647 B(  3-C , 17-H ) :  -0.1556
B(  3-C , 27-C ) :  -0.3101 B(  3-C , 32-C ) :   0.1423 B(  4-C ,  5-C ) :  -0.4660
B(  4-C , 10-C ) :   0.8982 B(  4-C , 11-H ) :  -0.1403 B(  4-C , 12-H ) :  -0.1374
B(  4-C , 14-C ) :  -0.1399 B(  4-C , 26-Cl) :  -0.3560 B(  4-C , 27-C ) :   0.3069
B(  4-C , 32-C ) :  -0.1954 B(  5-C , 10-C ) :   0.1316 B(  5-C , 18-C ) :   0.9890
B(  5-C , 20-H ) :  -0.1252 B(  5-C , 26-Cl) :   0.1529 B(  5-C , 27-C ) :   0.2753
B(  5-C , 28-C ) :   0.1108 B(  5-C , 32-C ) :   0.1771 B(  6-C ,  7-H ) :   0.9790
B(  6-C ,  8-H ) :   1.0095 B(  6-C ,  9-H ) :   0.9356 B(  6-C , 10-C ) :   0.1684
B(  6-C , 22-C ) :   0.1255 B(  6-C , 27-C ) :   0.2107 B(  6-C , 28-C ) :  -0.1290
B(  6-C , 40-H ) :  -0.1268 B( 10-C , 11-H ) :   0.9723 B( 10-C , 12-H ) :   0.9921
B( 10-C , 13-H ) :   0.9404 B( 10-C , 14-C ) :   0.2426 B( 14-C , 15-H ) :   0.9099
B( 14-C , 16-H ) :   0.9581 B( 14-C , 17-H ) :   0.9850 B( 14-C , 18-C ) :   0.2057
B( 18-C , 19-H ) :   0.9415 B( 18-C , 20-H ) :   0.9870 B( 18-C , 21-H ) :   1.0238
B( 18-C , 22-C ) :   0.1275 B( 22-C , 23-H ) :   0.9074 B( 22-C , 24-H ) :   1.0512
B( 22-C , 25-H ) :   1.0120 B( 24-H , 25-H ) :   0.1031 B( 26-Cl, 27-C ) :   0.1046
B( 26-Cl, 32-C ) :  -0.2268 B( 26-Cl, 33-C ) :   0.1389 B( 26-Cl, 34-C ) :  -0.2074
B( 27-C , 28-C ) :  -0.2365 B( 27-C , 29-C ) :   0.1134 B( 27-C , 32-C ) :  -0.2977
B( 27-C , 34-C ) :   1.0308 B( 27-C , 39-H ) :   1.5988 B( 27-C , 40-H ) :  -0.3789
B( 27-C , 43-H ) :   0.1238 B( 28-C , 29-C ) :   1.2233 B( 28-C , 32-C ) :   0.2169
B( 28-C , 37-H ) :   0.2462 B( 28-C , 39-H ) :  -0.4514 B( 28-C , 40-H ) :   1.0543
B( 28-C , 43-H ) :  -0.1226 B( 29-C , 30-C ) :   1.0371 B( 29-C , 31-C ) :  -0.1453
B( 29-C , 35-H ) :   0.9010 B( 29-C , 37-H ) :   0.7692 B( 29-C , 46-H ) :   0.1441
B( 30-C , 31-C ) :   1.2311 B( 30-C , 32-C ) :   0.1299 B( 30-C , 34-C ) :   0.1603
B( 30-C , 36-H ) :   0.9672 B( 30-C , 37-H ) :   0.1248 B( 30-C , 45-H ) :   0.9492
B( 31-C , 32-C ) :   1.1596 B( 31-C , 46-H ) :   0.7889 B( 32-C , 33-C ) :   1.1033
B( 32-C , 34-C ) :   0.1224 B( 32-C , 43-H ) :   1.1556 B( 32-C , 46-H ) :  -0.2243
B( 33-C , 34-C ) :   0.9567 B( 33-C , 39-H ) :   0.1648 B( 33-C , 42-H ) :   0.8780
B( 33-C , 44-H ) :   0.9096 B( 34-C , 38-H ) :   0.9689 B( 34-C , 39-H ) :  -0.1147
B( 34-C , 41-H ) :   0.9177

FINAL SINGLE POINT ENERGY     -1257.368579575588

DIPOLE MOMENT
-------------
                                X             Y             Z
Electronic contribution:     -3.08536     -21.59135      -2.00499
Nuclear contribution   :      3.57716      23.71136       2.15126
                        -----------------------------------------
Total Dipole Moment    :      0.49180       2.12001       0.14627
                        -----------------------------------------
Magnitude (a.u.)       :      2.18122
Magnitude (Debye)      :      5.54421

Rotational constants in cm-1:     0.013422     0.011126     0.009459
Rotational constants in MHz :   402.378908   333.556426   283.583792

                             ****ORCA TERMINATED NORMALLY****
TOTAL RUN TIME: 0 days 1 hours 6 minutes 58 seconds 153 msec
