                         Program Version 4.2.0 -  RELEASE  -
|  1> #
|  2> # MOR26_pr05 wB97X-V/Def2-TZVPPD
|  3> #
|  4> ! wb97x-v def2-tzvppd def2/jk grid4 nofinalgrid
|  5>
|  6> *xyz 0 1
|  7> Mn       0.144445   -0.000220    0.050119
|  8> O       -2.125838   -0.018069    2.024989
|  9> C       -1.261969   -0.011297    1.274333
| 10> C        1.407998   -0.004194    1.401883
| 11> O        2.195378   -0.006691    2.240943
| 12> C        1.458789    0.011243   -1.252981
| 13> O        2.260044    0.018413   -2.075843
| 14> C       -0.034165    1.837211   -0.109707
| 15> O       -0.163636    2.972926   -0.231026
| 16> C       -0.023402   -1.836685   -0.130415
| 17> O       -0.146189   -2.971707   -0.264701
| 18> C       -1.328355    0.004078   -1.485929
| 19> O       -2.518815    0.004844   -1.307728
| 20> H       -0.932058    0.005632   -2.529143
| 21> *
| 22>
| 23> %maxcore 5000
| 24>
| 25> %pal
| 26> nprocs = 24
| 27> end
| 28>
| 29>
| 30>                          ****END OF INPUT****

CARTESIAN COORDINATES (ANGSTROEM)
---------------------------------
  Mn     0.144445   -0.000220    0.050119
  O     -2.125838   -0.018069    2.024989
  C     -1.261969   -0.011297    1.274333
  C      1.407998   -0.004194    1.401883
  O      2.195378   -0.006691    2.240943
  C      1.458789    0.011243   -1.252981
  O      2.260044    0.018413   -2.075843
  C     -0.034165    1.837211   -0.109707
  O     -0.163636    2.972926   -0.231026
  C     -0.023402   -1.836685   -0.130415
  O     -0.146189   -2.971707   -0.264701
  C     -1.328355    0.004078   -1.485929
  O     -2.518815    0.004844   -1.307728
  H     -0.932058    0.005632   -2.529143

 Total Charge           Charge          ....    0
 Multiplicity           Mult            ....    1
 Number of Electrons    NEL             ....  110
 Basis Dimension        Dim             ....  546

ORBITAL ENERGIES
----------------

  NO   OCC          E(Eh)            E(eV)
   0   2.0000    -235.426819     -6406.2894
   1   2.0000     -27.434221      -746.5231
   2   2.0000     -23.505302      -639.6118
   3   2.0000     -23.504643      -639.5938
   4   2.0000     -23.500325      -639.4764
   5   2.0000     -19.333154      -526.0819
   6   2.0000     -19.329211      -525.9746
   7   2.0000     -19.325418      -525.8714
   8   2.0000     -19.325392      -525.8706
   9   2.0000     -19.321711      -525.7705
  10   2.0000     -19.223618      -523.1012
  11   2.0000     -10.433113      -283.8994
  12   2.0000     -10.429491      -283.8009
  13   2.0000     -10.429346      -283.7969
  14   2.0000     -10.429320      -283.7962
  15   2.0000     -10.425823      -283.7011
  16   2.0000     -10.367339      -282.1096
  17   2.0000      -3.313937       -90.1768
  18   2.0000      -2.178126       -59.2698
  19   2.0000      -2.177065       -59.2409
  20   2.0000      -2.165346       -58.9221
  21   2.0000      -1.303894       -35.4808
  22   2.0000      -1.300730       -35.3946
  23   2.0000      -1.296226       -35.2721
  24   2.0000      -1.296200       -35.2714
  25   2.0000      -1.292577       -35.1728
  26   2.0000      -1.187020       -32.3004
  27   2.0000      -0.774716       -21.0811
  28   2.0000      -0.722119       -19.6499
  29   2.0000      -0.715657       -19.4740
  30   2.0000      -0.714980       -19.4556
  31   2.0000      -0.709903       -19.3174
  32   2.0000      -0.707330       -19.2474
  33   2.0000      -0.645267       -17.5586
  34   2.0000      -0.626706       -17.0535
  35   2.0000      -0.619503       -16.8575
  36   2.0000      -0.616639       -16.7796
  37   2.0000      -0.615912       -16.7598
  38   2.0000      -0.613139       -16.6844
  39   2.0000      -0.612841       -16.6763
  40   2.0000      -0.597810       -16.2672
  41   2.0000      -0.592695       -16.1280
  42   2.0000      -0.591640       -16.0994
  43   2.0000      -0.589257       -16.0345
  44   2.0000      -0.586175       -15.9506
  45   2.0000      -0.575845       -15.6695
  46   2.0000      -0.570363       -15.5204
  47   2.0000      -0.557318       -15.1654
  48   2.0000      -0.544408       -14.8141
  49   2.0000      -0.511567       -13.9205
  50   2.0000      -0.500485       -13.6189
  51   2.0000      -0.391029       -10.6404
  52   2.0000      -0.381261       -10.3746
  53   2.0000      -0.377040       -10.2598
  54   2.0000      -0.323195        -8.7946
  55   0.0000       0.023424         0.6374
  56   0.0000       0.025583         0.6962
  57   0.0000       0.030295         0.8244
  58   0.0000       0.037651         1.0245
  59   0.0000       0.037922         1.0319

MULLIKEN ATOMIC CHARGES
-----------------------
   0 Mn:    1.025587
   1 O :   -0.176016
   2 C :    0.149052
   3 C :    0.170767
   4 O :   -0.231690
   5 C :    0.073692
   6 O :   -0.205837
   7 C :   -0.028280
   8 O :   -0.209598
   9 C :   -0.029480
  10 O :   -0.209853
  11 C :    0.067818
  12 O :   -0.394126
  13 H :   -0.002035
Sum of atomic charges:    0.0000000

LOEWDIN ATOMIC CHARGES
----------------------
   0 Mn:   -0.459364
   1 O :    0.203534
   2 C :   -0.049803
   3 C :   -0.061358
   4 O :    0.164328
   5 C :   -0.071544
   6 O :    0.186216
   7 C :   -0.062672
   8 O :    0.182204
   9 C :   -0.062791
  10 O :    0.182120
  11 C :   -0.148377
  12 O :    0.012894
  13 H :   -0.015388

  Mayer bond orders larger than 0.100000
B(  0-Mn,  2-C ) :   0.6804 B(  0-Mn,  3-C ) :   0.9000 B(  0-Mn,  5-C ) :   0.6478
B(  0-Mn,  7-C ) :   0.7121 B(  0-Mn,  9-C ) :   0.7103 B(  0-Mn, 11-C ) :   0.5418
B(  0-Mn, 13-H ) :  -0.1132 B(  1-O ,  2-C ) :   2.2693 B(  3-C ,  4-O ) :   2.2368
B(  5-C ,  6-O ) :   2.2515 B(  7-C ,  8-O ) :   2.2552 B(  7-C , 11-C ) :   0.1415
B(  9-C , 10-O ) :   2.2550 B(  9-C , 11-C ) :   0.1426 B( 11-C , 12-O ) :   1.9018
B( 11-C , 13-H ) :   1.1967

FINAL SINGLE POINT ENERGY     -1831.556441264248

DIPOLE MOMENT
-------------
                                X             Y             Z
Electronic contribution:      2.50452      -0.00747       2.73246
Nuclear contribution   :     -1.52284       0.00619      -2.55446
                        -----------------------------------------
Total Dipole Moment    :      0.98168      -0.00128       0.17800
                        -----------------------------------------
Magnitude (a.u.)       :      0.99769
Magnitude (Debye)      :      2.53592

Rotational constants in cm-1:     0.023969     0.022043     0.021367
Rotational constants in MHz :   718.564967   660.846663   640.564054

                             ****ORCA TERMINATED NORMALLY****
TOTAL RUN TIME: 0 days 0 hours 4 minutes 41 seconds 59 msec
