                         Program Version 4.2.0 -  RELEASE  -
|  1> #
|  2> # MOR23_phseh wB97X-V/Def2-TZVPPD
|  3> #
|  4> ! wb97x-v def2-tzvppd def2/jk grid4 nofinalgrid
|  5>
|  6> *xyz 0 1
|  7> C        0.099641    0.015172    0.000002
|  8> C        0.811159    1.219454    0.000004
|  9> C        2.205438    1.200000    0.000001
| 10> C        2.898295   -0.010923    0.000001
| 11> C        2.184022   -1.209573    0.000001
| 12> C        0.790170   -1.202154    0.000003
| 13> Se      -1.821201   -0.043502   -0.000002
| 14> H       -1.984560    1.419830   -0.000002
| 15> H        0.283594    2.168662    0.000009
| 16> H        2.749671    2.140448   -0.000003
| 17> H        3.983980   -0.020380    0.000003
| 18> H        2.711288   -2.159513   -0.000002
| 19> H        0.244496   -2.141840    0.000007
| 20> *
| 21>
| 22> %maxcore 5000
| 23>
| 24> %pal
| 25> nprocs = 24
| 26> end
| 27>
| 28>
| 29>                          ****END OF INPUT****

CARTESIAN COORDINATES (ANGSTROEM)
---------------------------------
  C      0.099641    0.015172    0.000002
  C      0.811159    1.219454    0.000004
  C      2.205438    1.200000    0.000001
  C      2.898295   -0.010923    0.000001
  C      2.184022   -1.209573    0.000001
  C      0.790170   -1.202154    0.000003
  Se    -1.821201   -0.043502   -0.000002
  H     -1.984560    1.419830   -0.000002
  H      0.283594    2.168662    0.000009
  H      2.749671    2.140448   -0.000003
  H      3.983980   -0.020380    0.000003
  H      2.711288   -2.159513   -0.000002
  H      0.244496   -2.141840    0.000007

 Total Charge           Charge          ....    0
 Multiplicity           Mult            ....    1
 Number of Electrons    NEL             ....   76
 Basis Dimension        Dim             ....  381

ORBITAL ENERGIES
----------------

  NO   OCC          E(Eh)            E(eV)
   0   2.0000    -453.708708    -12346.0416
   1   2.0000     -58.113228     -1581.3413
   2   2.0000     -52.156569     -1419.2524
   3   2.0000     -52.155170     -1419.2143
   4   2.0000     -52.152785     -1419.1494
   5   2.0000     -10.320619      -280.8383
   6   2.0000     -10.288272      -279.9581
   7   2.0000     -10.287712      -279.9429
   8   2.0000     -10.287085      -279.9258
   9   2.0000     -10.286901      -279.9208
  10   2.0000     -10.282557      -279.8026
  11   2.0000      -7.927374      -215.7148
  12   2.0000      -5.873963      -159.8387
  13   2.0000      -5.869276      -159.7111
  14   2.0000      -5.861311      -159.4944
  15   2.0000      -2.233640       -60.7804
  16   2.0000      -2.233147       -60.7670
  17   2.0000      -2.226279       -60.5801
  18   2.0000      -2.222622       -60.4806
  19   2.0000      -2.221642       -60.4540
  20   2.0000      -1.006069       -27.3765
  21   2.0000      -0.909290       -24.7430
  22   2.0000      -0.890175       -24.2229
  23   2.0000      -0.822800       -22.3895
  24   2.0000      -0.740774       -20.1575
  25   2.0000      -0.718358       -19.5475
  26   2.0000      -0.639673       -17.4064
  27   2.0000      -0.579867       -15.7790
  28   2.0000      -0.573444       -15.6042
  29   2.0000      -0.542549       -14.7635
  30   2.0000      -0.520824       -14.1723
  31   2.0000      -0.502392       -13.6708
  32   2.0000      -0.476207       -12.9583
  33   2.0000      -0.458173       -12.4675
  34   2.0000      -0.425474       -11.5777
  35   2.0000      -0.394626       -10.7383
  36   2.0000      -0.358480        -9.7547
  37   2.0000      -0.310671        -8.4538
  38   0.0000       0.045387         1.2350
  39   0.0000       0.050815         1.3827
  40   0.0000       0.052803         1.4368
  41   0.0000       0.054710         1.4887
  42   0.0000       0.061007         1.6601

MULLIKEN ATOMIC CHARGES
-----------------------
   0 C :    0.298583
   1 C :    0.213070
   2 C :   -0.061892
   3 C :   -0.067383
   4 C :   -0.011333
   5 C :   -0.090916
   6 Se:   -0.084871
   7 H :    0.009853
   8 H :   -0.108227
   9 H :   -0.006535
  10 H :   -0.004045
  11 H :   -0.006543
  12 H :   -0.079761
Sum of atomic charges:    0.0000000

LOEWDIN ATOMIC CHARGES
----------------------
   0 C :   -0.567269
   1 C :   -0.045409
   2 C :    0.007908
   3 C :    0.004522
   4 C :    0.007473
   5 C :   -0.057704
   6 Se:    0.910363
   7 H :   -0.249965
   8 H :   -0.010364
   9 H :    0.003033
  10 H :   -0.000849
  11 H :    0.003161
  12 H :   -0.004900

  Mayer bond orders larger than 0.100000
B(  0-C ,  1-C ) :   1.0098 B(  0-C ,  5-C ) :   1.1827 B(  0-C ,  6-Se) :   1.0920
B(  0-C ,  8-H ) :  -0.2072 B(  0-C , 12-H ) :  -0.1927 B(  1-C ,  2-C ) :   1.2411
B(  1-C ,  6-Se) :  -0.1181 B(  1-C ,  8-H ) :   1.1471 B(  2-C ,  3-C ) :   1.2445
B(  2-C ,  9-H ) :   1.0977 B(  3-C ,  4-C ) :   1.2373 B(  3-C , 10-H ) :   1.0948
B(  4-C ,  5-C ) :   1.2638 B(  4-C , 11-H ) :   1.1020 B(  5-C , 12-H ) :   1.1393
B(  6-Se,  7-H ) :   1.0099

FINAL SINGLE POINT ENERGY     -2633.591568229926

DIPOLE MOMENT
-------------
                                X             Y             Z
Electronic contribution:    -25.02683      -1.49853      -0.00003
Nuclear contribution   :     25.40592       1.71219       0.00003
                        -----------------------------------------
Total Dipole Moment    :      0.37909       0.21367       0.00000
                        -----------------------------------------
Magnitude (a.u.)       :      0.43516
Magnitude (Debye)      :      1.10608

Rotational constants in cm-1:     0.185431     0.032154     0.027403
Rotational constants in MHz :  5559.086830   963.964760   821.511792

                             ****ORCA TERMINATED NORMALLY****
TOTAL RUN TIME: 0 days 0 hours 1 minutes 6 seconds 960 msec
