                         Program Version 4.2.0 -  RELEASE  -
|  1> #
|  2> # MOR21_mecn wB97X-V/Def2-TZVPPD
|  3> #
|  4> ! wb97x-v def2-tzvppd def2/jk grid4 nofinalgrid
|  5>
|  6> *xyz 0 1
|  7> N        1.434594    0.083513   -0.053227
|  8> C        0.278345    0.016206   -0.010325
|  9> C       -1.176577   -0.068494    0.043652
| 10> H       -1.556498   -0.572512   -0.849824
| 11> H       -1.609231    0.934929    0.094890
| 12> H       -1.487035   -0.633283    0.927565
| 13> *
| 14>
| 15> %maxcore 5000
| 16>
| 17> %pal
| 18> nprocs = 24
| 19> end
| 20>
| 21>
| 22>                          ****END OF INPUT****

CARTESIAN COORDINATES (ANGSTROEM)
---------------------------------
  N      1.434594    0.083513   -0.053227
  C      0.278345    0.016206   -0.010325
  C     -1.176577   -0.068494    0.043652
  H     -1.556498   -0.572512   -0.849824
  H     -1.609231    0.934929    0.094890
  H     -1.487035   -0.633283    0.927565

 Total Charge           Charge          ....    0
 Multiplicity           Mult            ....    1
 Number of Electrons    NEL             ....   22
 Basis Dimension        Dim             ....  162

ORBITAL ENERGIES
----------------

  NO   OCC          E(Eh)            E(eV)
   0   2.0000     -14.413363      -392.2075
   1   2.0000     -10.329033      -281.0673
   2   2.0000     -10.317466      -280.7525
   3   2.0000      -1.041127       -28.3305
   4   2.0000      -0.913894       -24.8683
   5   2.0000      -0.635448       -17.2914
   6   2.0000      -0.582895       -15.8614
   7   2.0000      -0.582892       -15.8613
   8   2.0000      -0.481127       -13.0921
   9   2.0000      -0.440438       -11.9849
  10   2.0000      -0.440438       -11.9849
  11   0.0000       0.048510         1.3200
  12   0.0000       0.092792         2.5250
  13   0.0000       0.105547         2.8721
  14   0.0000       0.105547         2.8721
  15   0.0000       0.143891         3.9155

MULLIKEN ATOMIC CHARGES
-----------------------
   0 N :   -0.166006
   1 C :   -0.114934
   2 C :    0.052733
   3 H :    0.076161
   4 H :    0.076166
   5 H :    0.075880
Sum of atomic charges:    0.0000000

LOEWDIN ATOMIC CHARGES
----------------------
   0 N :    0.121210
   1 C :   -0.238211
   2 C :    0.131270
   3 H :   -0.004755
   4 H :   -0.004756
   5 H :   -0.004757

  Mayer bond orders larger than 0.100000
B(  0-N ,  1-C ) :   2.5623 B(  1-C ,  2-C ) :   0.8993 B(  2-C ,  3-H ) :   0.9741
B(  2-C ,  4-H ) :   0.9740 B(  2-C ,  5-H ) :   0.9741

FINAL SINGLE POINT ENERGY      -132.762920585015

DIPOLE MOMENT
-------------
                                X             Y             Z
Electronic contribution:      3.07752       0.17916      -0.11418
Nuclear contribution   :     -4.67428      -0.27212       0.17343
                        -----------------------------------------
Total Dipole Moment    :     -1.59676      -0.09296       0.05925
                        -----------------------------------------
Magnitude (a.u.)       :      1.60056
Magnitude (Debye)      :      4.06829

Rotational constants in cm-1:     5.279638     0.306561     0.306561
Rotational constants in MHz : 158279.554854  9190.460473  9190.452676

                             ****ORCA TERMINATED NORMALLY****
TOTAL RUN TIME: 0 days 0 hours 0 minutes 5 seconds 584 msec
