                         Program Version 4.2.0 -  RELEASE  -
|  1> #
|  2> # MOR20_i2 wB97X-V/Def2-TZVPPD
|  3> #
|  4> ! wb97x-v def2-tzvppd def2/jk grid4 nofinalgrid
|  5>
|  6> *xyz 0 1
|  7> I        0.000000    0.000000    1.341554
|  8> I        0.000000    0.000000   -1.341554
|  9> *
| 10>
| 11> %maxcore 5000
| 12>
| 13> %pal
| 14> nprocs = 24
| 15> end
| 16>
| 17>
| 18>                          ****END OF INPUT****

CARTESIAN COORDINATES (ANGSTROEM)
---------------------------------
  I      0.000000    0.000000    1.341554
  I      0.000000    0.000000   -1.341554

 Total Charge           Charge          ....    0
 Multiplicity           Mult            ....    1
 Number of Electrons    NEL             ....   50
 Basis Dimension        Dim             ....  118

ORBITAL ENERGIES
----------------

  NO   OCC          E(Eh)            E(eV)
   0   2.0000      -6.978413      -189.8923
   1   2.0000      -6.978403      -189.8920
   2   2.0000      -5.013110      -136.4137
   3   2.0000      -5.012984      -136.4102
   4   2.0000      -4.996199      -135.9535
   5   2.0000      -4.996199      -135.9535
   6   2.0000      -4.996186      -135.9531
   7   2.0000      -4.996186      -135.9531
   8   2.0000      -2.067497       -56.2595
   9   2.0000      -2.062925       -56.1350
  10   2.0000      -2.060884       -56.0795
  11   2.0000      -2.060884       -56.0795
  12   2.0000      -2.059423       -56.0397
  13   2.0000      -2.059423       -56.0397
  14   2.0000      -2.046229       -55.6807
  15   2.0000      -2.046210       -55.6802
  16   2.0000      -2.046135       -55.6782
  17   2.0000      -2.046116       -55.6776
  18   2.0000      -0.884520       -24.0690
  19   2.0000      -0.788504       -21.4563
  20   2.0000      -0.464973       -12.6526
  21   2.0000      -0.425682       -11.5834
  22   2.0000      -0.425682       -11.5834
  23   2.0000      -0.355246        -9.6667
  24   2.0000      -0.355246        -9.6667
  25   0.0000      -0.065747        -1.7891
  26   0.0000       0.043426         1.1817
  27   0.0000       0.056701         1.5429
  28   0.0000       0.056701         1.5429
  29   0.0000       0.058391         1.5889

MULLIKEN ATOMIC CHARGES
-----------------------
   0 I :    0.000001
   1 I :   -0.000001
Sum of atomic charges:   -0.0000000

LOEWDIN ATOMIC CHARGES
----------------------
   0 I :    0.000000
   1 I :   -0.000000

  Mayer bond orders larger than 0.100000
B(  0-I ,  1-I ) :   0.9982

FINAL SINGLE POINT ENERGY      -595.406474987456

DIPOLE MOMENT
-------------
                                X             Y             Z
Electronic contribution:     -0.00000      -0.00000      -0.00000
Nuclear contribution   :      0.00000       0.00000       0.00000
                        -----------------------------------------
Total Dipole Moment    :     -0.00000      -0.00000      -0.00000
                        -----------------------------------------
Magnitude (a.u.)       :      0.00000
Magnitude (Debye)      :      0.00000

Rotational constants in cm-1:     0.000000     0.036905     0.036905
Rotational constants in MHz :     0.000000  1106.393636  1106.393636

                             ****ORCA TERMINATED NORMALLY****
TOTAL RUN TIME: 0 days 0 hours 0 minutes 7 seconds 862 msec
