                         Program Version 4.2.0 -  RELEASE  -
|  1> #
|  2> # MOR27_pr07 wB97X-V/Def2-TZVPPD
|  3> #
|  4> ! wb97x-v def2-tzvppd def2/jk grid4 nofinalgrid
|  5>
|  6> *xyz 0 1
|  7> W        0.000153   -0.023654    0.145460
|  8> C       -0.000249    1.935753    0.684175
|  9> O       -0.000602    3.038332    1.069126
| 10> C        0.000042    0.319115   -1.817511
| 11> O        0.000023    0.516387   -2.971186
| 12> C        0.000186   -2.057627    0.000209
| 13> O        0.000001   -3.223688    0.015338
| 14> H       -0.422672   -0.342863    1.975704
| 15> H        0.423087   -0.343070    1.976292
| 16> P        2.499044    0.051189    0.053466
| 17> C        3.398497   -0.579400    1.568536
| 18> H        4.468576   -0.564735    1.332934
| 19> C        3.357030   -0.829661   -1.379272
| 20> H        3.371948   -0.051400   -2.154068
| 21> C        3.157630    1.804169   -0.095931
| 22> H        2.704128    2.295578    0.773940
| 23> C       -3.158190    1.803853   -0.098051
| 24> P       -2.499342    0.051185    0.053494
| 25> H       -4.468329   -0.563916    1.334439
| 26> H       -2.705915    2.296277    0.771888
| 27> C       -3.357947   -0.831337   -1.377937
| 28> H       -3.374541   -0.053484   -2.153122
| 29> C        4.805704   -1.269244   -1.108536
| 30> H        5.254950   -1.620204   -2.045252
| 31> H        4.835898   -2.103732   -0.400453
| 32> H        5.434431   -0.467933   -0.716341
| 33> C        2.560788   -2.016752   -1.935473
| 34> H        3.061937   -2.400142   -2.832615
| 35> H        1.542966   -1.732188   -2.204810
| 36> H        2.502084   -2.833493   -1.209948
| 37> C        4.680481    1.979802   -0.012340
| 38> H        4.916239    3.046506    0.083978
| 39> H        5.169829    1.620688   -0.922848
| 40> H        5.123446    1.463622    0.844533
| 41> C        2.617881    2.501599   -1.352306
| 42> H        2.906367    3.558914   -1.336615
| 43> H        1.529775    2.443192   -1.410983
| 44> H        3.032951    2.058398   -2.264167
| 45> C        3.156179    0.325190    2.783070
| 46> H        3.624905   -0.113517    3.671755
| 47> H        2.084721    0.431553    2.987984
| 48> H        3.570907    1.327076    2.642068
| 49> C        2.983676   -2.024266    1.875196
| 50> H        3.139448   -2.690345    1.021876
| 51> H        1.922767   -2.073885    2.140278
| 52> H        3.565975   -2.409562    2.720613
| 53> C       -4.681242    1.978525   -0.016373
| 54> H       -5.169268    1.617830   -0.926977
| 55> H       -4.917927    3.045167    0.078302
| 56> H       -5.124772    1.463082    0.840662
| 57> C       -2.617453    2.500423   -1.354472
| 58> H       -3.030239    2.055355   -2.266464
| 59> C       -2.982294   -2.021525    1.878658
| 60> H       -1.529170    2.443643   -1.411239
| 61> H       -2.907637    3.557302   -1.340680
| 62> C       -3.156106    0.329464    2.782654
| 63> H       -1.921474   -2.069894    2.144316
| 64> H       -3.564665   -2.406148    2.724324
| 65> H       -3.137027   -2.688908    1.026165
| 66> C       -3.398186   -0.577432    1.569777
| 67> H       -3.622276   -0.109074    3.672772
| 68> H       -3.573608    1.330095    2.640827
| 69> H       -2.084555    0.438855    2.985621
| 70> C       -4.805869   -1.272290   -1.105425
| 71> H       -5.255612   -1.624537   -2.041419
| 72> H       -5.435110   -0.471325   -0.713333
| 73> H       -4.834472   -2.106207   -0.396602
| 74> C       -2.561058   -2.017888   -1.934324
| 75> H       -2.500954   -2.834229   -1.208460
| 76> H       -1.543733   -1.732464   -2.204653
| 77> H       -3.062606   -2.402180   -2.830854
| 78> *
| 79>
| 80> %maxcore 5000
| 81>
| 82> %pal
| 83> nprocs = 24
| 84> end
| 85>
| 86>
| 87>                          ****END OF INPUT****

CARTESIAN COORDINATES (ANGSTROEM)
---------------------------------
  W      0.000153   -0.023654    0.145460
  C     -0.000249    1.935753    0.684175
  O     -0.000602    3.038332    1.069126
  C      0.000042    0.319115   -1.817511
  O      0.000023    0.516387   -2.971186
  C      0.000186   -2.057627    0.000209
  O      0.000001   -3.223688    0.015338
  H     -0.422672   -0.342863    1.975704
  H      0.423087   -0.343070    1.976292
  P      2.499044    0.051189    0.053466
  C      3.398497   -0.579400    1.568536
  H      4.468576   -0.564735    1.332934
  C      3.357030   -0.829661   -1.379272
  H      3.371948   -0.051400   -2.154068
  C      3.157630    1.804169   -0.095931
  H      2.704128    2.295578    0.773940
  C     -3.158190    1.803853   -0.098051
  P     -2.499342    0.051185    0.053494
  H     -4.468329   -0.563916    1.334439
  H     -2.705915    2.296277    0.771888
  C     -3.357947   -0.831337   -1.377937
  H     -3.374541   -0.053484   -2.153122
  C      4.805704   -1.269244   -1.108536
  H      5.254950   -1.620204   -2.045252
  H      4.835898   -2.103732   -0.400453
  H      5.434431   -0.467933   -0.716341
  C      2.560788   -2.016752   -1.935473
  H      3.061937   -2.400142   -2.832615
  H      1.542966   -1.732188   -2.204810
  H      2.502084   -2.833493   -1.209948
  C      4.680481    1.979802   -0.012340
  H      4.916239    3.046506    0.083978
  H      5.169829    1.620688   -0.922848
  H      5.123446    1.463622    0.844533
  C      2.617881    2.501599   -1.352306
  H      2.906367    3.558914   -1.336615
  H      1.529775    2.443192   -1.410983
  H      3.032951    2.058398   -2.264167
  C      3.156179    0.325190    2.783070
  H      3.624905   -0.113517    3.671755
  H      2.084721    0.431553    2.987984
  H      3.570907    1.327076    2.642068
  C      2.983676   -2.024266    1.875196
  H      3.139448   -2.690345    1.021876
  H      1.922767   -2.073885    2.140278
  H      3.565975   -2.409562    2.720613
  C     -4.681242    1.978525   -0.016373
  H     -5.169268    1.617830   -0.926977
  H     -4.917927    3.045167    0.078302
  H     -5.124772    1.463082    0.840662
  C     -2.617453    2.500423   -1.354472
  H     -3.030239    2.055355   -2.266464
  C     -2.982294   -2.021525    1.878658
  H     -1.529170    2.443643   -1.411239
  H     -2.907637    3.557302   -1.340680
  C     -3.156106    0.329464    2.782654
  H     -1.921474   -2.069894    2.144316
  H     -3.564665   -2.406148    2.724324
  H     -3.137027   -2.688908    1.026165
  C     -3.398186   -0.577432    1.569777
  H     -3.622276   -0.109074    3.672772
  H     -3.573608    1.330095    2.640827
  H     -2.084555    0.438855    2.985621
  C     -4.805869   -1.272290   -1.105425
  H     -5.255612   -1.624537   -2.041419
  H     -5.435110   -0.471325   -0.713333
  H     -4.834472   -2.106207   -0.396602
  C     -2.561058   -2.017888   -1.934324
  H     -2.500954   -2.834229   -1.208460
  H     -1.543733   -1.732464   -2.204653
  H     -3.062606   -2.402180   -2.830854

 Total Charge           Charge          ....    0
 Multiplicity           Mult            ....    1
 Number of Electrons    NEL             ....  238
 Basis Dimension        Dim             .... 1800

ORBITAL ENERGIES
----------------

  NO   OCC          E(Eh)            E(eV)
   0   2.0000     -77.087928     -2097.6692
   1   2.0000     -77.087902     -2097.6685
   2   2.0000     -19.261228      -524.1247
   3   2.0000     -19.259617      -524.0808
   4   2.0000     -19.244822      -523.6782
   5   2.0000     -10.362645      -281.9819
   6   2.0000     -10.361761      -281.9579
   7   2.0000     -10.351898      -281.6895
   8   2.0000     -10.286917      -279.9212
   9   2.0000     -10.286897      -279.9207
  10   2.0000     -10.286531      -279.9108
  11   2.0000     -10.286502      -279.9099
  12   2.0000     -10.285002      -279.8691
  13   2.0000     -10.284989      -279.8688
  14   2.0000     -10.270057      -279.4624
  15   2.0000     -10.270052      -279.4623
  16   2.0000     -10.269310      -279.4421
  17   2.0000     -10.269294      -279.4417
  18   2.0000     -10.268103      -279.4093
  19   2.0000     -10.268087      -279.4088
  20   2.0000     -10.267444      -279.3913
  21   2.0000     -10.267425      -279.3908
  22   2.0000     -10.260279      -279.1964
  23   2.0000     -10.260278      -279.1964
  24   2.0000     -10.257101      -279.1099
  25   2.0000     -10.257092      -279.1097
  26   2.0000      -6.666240      -181.3976
  27   2.0000      -6.666215      -181.3969
  28   2.0000      -4.819818      -131.1539
  29   2.0000      -4.819802      -131.1535
  30   2.0000      -4.819793      -131.1532
  31   2.0000      -4.819777      -131.1528
  32   2.0000      -4.816468      -131.0627
  33   2.0000      -4.816442      -131.0621
  34   2.0000      -3.011509       -81.9473
  35   2.0000      -1.664486       -45.2930
  36   2.0000      -1.663290       -45.2604
  37   2.0000      -1.653288       -44.9883
  38   2.0000      -1.227055       -33.3899
  39   2.0000      -1.226249       -33.3679
  40   2.0000      -1.212120       -32.9835
  41   2.0000      -0.957036       -26.0423
  42   2.0000      -0.956514       -26.0281
  43   2.0000      -0.922826       -25.1114
  44   2.0000      -0.922778       -25.1101
  45   2.0000      -0.919765       -25.0281
  46   2.0000      -0.919728       -25.0271
  47   2.0000      -0.824364       -22.4321
  48   2.0000      -0.824082       -22.4244
  49   2.0000      -0.821593       -22.3567
  50   2.0000      -0.821145       -22.3445
  51   2.0000      -0.813457       -22.1353
  52   2.0000      -0.813130       -22.1264
  53   2.0000      -0.785072       -21.3629
  54   2.0000      -0.782338       -21.2885
  55   2.0000      -0.714139       -19.4327
  56   2.0000      -0.713823       -19.4241
  57   2.0000      -0.712915       -19.3994
  58   2.0000      -0.711882       -19.3713
  59   2.0000      -0.690918       -18.8008
  60   2.0000      -0.655247       -17.8302
  61   2.0000      -0.653435       -17.7809
  62   2.0000      -0.639854       -17.4113
  63   2.0000      -0.639700       -17.4071
  64   2.0000      -0.613771       -16.7016
  65   2.0000      -0.594096       -16.1662
  66   2.0000      -0.591834       -16.1046
  67   2.0000      -0.589623       -16.0445
  68   2.0000      -0.581608       -15.8264
  69   2.0000      -0.576861       -15.6972
  70   2.0000      -0.576810       -15.6958
  71   2.0000      -0.565000       -15.3744
  72   2.0000      -0.557845       -15.1797
  73   2.0000      -0.557015       -15.1572
  74   2.0000      -0.550790       -14.9878
  75   2.0000      -0.549527       -14.9534
  76   2.0000      -0.540773       -14.7152
  77   2.0000      -0.538860       -14.6631
  78   2.0000      -0.538520       -14.6539
  79   2.0000      -0.534152       -14.5350
  80   2.0000      -0.531693       -14.4681
  81   2.0000      -0.531641       -14.4667
  82   2.0000      -0.525988       -14.3129
  83   2.0000      -0.519882       -14.1467
  84   2.0000      -0.517197       -14.0737
  85   2.0000      -0.516463       -14.0537
  86   2.0000      -0.512036       -13.9332
  87   2.0000      -0.508142       -13.8273
  88   2.0000      -0.506625       -13.7860
  89   2.0000      -0.504571       -13.7301
  90   2.0000      -0.503927       -13.7125
  91   2.0000      -0.499933       -13.6039
  92   2.0000      -0.496957       -13.5229
  93   2.0000      -0.493311       -13.4237
  94   2.0000      -0.493106       -13.4181
  95   2.0000      -0.490647       -13.3512
  96   2.0000      -0.490076       -13.3356
  97   2.0000      -0.477822       -13.0022
  98   2.0000      -0.460455       -12.5296
  99   2.0000      -0.460385       -12.5277
 100   2.0000      -0.460300       -12.5254
 101   2.0000      -0.458208       -12.4685
 102   2.0000      -0.455167       -12.3857
 103   2.0000      -0.453784       -12.3481
 104   2.0000      -0.449660       -12.2359
 105   2.0000      -0.448158       -12.1950
 106   2.0000      -0.444311       -12.0903
 107   2.0000      -0.444097       -12.0845
 108   2.0000      -0.442570       -12.0430
 109   2.0000      -0.442234       -12.0338
 110   2.0000      -0.397023       -10.8035
 111   2.0000      -0.394496       -10.7348
 112   2.0000      -0.394430       -10.7330
 113   2.0000      -0.392663       -10.6849
 114   2.0000      -0.391315       -10.6482
 115   2.0000      -0.347808        -9.4643
 116   2.0000      -0.271979        -7.4009
 117   2.0000      -0.269167        -7.3244
 118   2.0000      -0.262230        -7.1356
 119   0.0000       0.043587         1.1861
 120   0.0000       0.046501         1.2654
 121   0.0000       0.050475         1.3735
 122   0.0000       0.054260         1.4765
 123   0.0000       0.057161         1.5554

MULLIKEN ATOMIC CHARGES
-----------------------
   0 W :   -3.552621
   1 C :    1.064582
   2 O :   -0.386944
   3 C :    0.681903
   4 O :   -0.434375
   5 C :    1.350146
   6 O :   -0.409254
   7 H :   -0.001683
   8 H :   -0.037643
   9 P :   -0.276774
  10 C :    0.647449
  11 H :    0.329376
  12 C :    1.187814
  13 H :    0.052490
  14 C :    0.609725
  15 H :    0.196265
  16 C :    0.611445
  17 P :   -0.295863
  18 H :    0.330722
  19 H :    0.196475
  20 C :    1.184073
  21 H :    0.052791
  22 C :   -0.541272
  23 H :    0.142028
  24 H :    0.042228
  25 H :    0.049111
  26 C :   -0.340184
  27 H :    0.122744
  28 H :   -0.065783
  29 H :    0.005489
  30 C :   -0.686417
  31 H :    0.117052
  32 H :    0.062246
  33 H :    0.106329
  34 C :   -0.285597
  35 H :    0.104918
  36 H :   -0.159484
  37 H :    0.063314
  38 C :   -0.488930
  39 H :    0.134721
  40 H :    0.014703
  41 H :    0.055620
  42 C :   -0.453735
  43 H :    0.008742
  44 H :   -0.046422
  45 H :    0.158814
  46 C :   -0.687204
  47 H :    0.062143
  48 H :    0.118096
  49 H :    0.105849
  50 C :   -0.286396
  51 H :    0.063093
  52 C :   -0.454569
  53 H :   -0.156766
  54 H :    0.105069
  55 C :   -0.486408
  56 H :   -0.044810
  57 H :    0.158857
  58 H :    0.008870
  59 C :    0.654947
  60 H :    0.134895
  61 H :    0.055007
  62 H :    0.015197
  63 C :   -0.542586
  64 H :    0.142317
  65 H :    0.049172
  66 H :    0.041838
  67 C :   -0.338730
  68 H :    0.005489
  69 H :   -0.067052
  70 H :    0.123344
Sum of atomic charges:    0.0000000

LOEWDIN ATOMIC CHARGES
----------------------
   0 W :    0.202857
   1 C :   -0.282916
   2 O :    0.066320
   3 C :   -0.338933
   4 O :    0.050823
   5 C :   -0.284375
   6 O :    0.060976
   7 H :    0.017208
   8 H :    0.017547
   9 P :    1.063850
  10 C :   -0.373921
  11 H :   -0.025997
  12 C :   -0.327913
  13 H :   -0.015497
  14 C :   -0.361079
  15 H :   -0.027451
  16 C :   -0.361096
  17 P :    1.064071
  18 H :   -0.026018
  19 H :   -0.027378
  20 C :   -0.327924
  21 H :   -0.015498
  22 C :    0.116386
  23 H :   -0.002771
  24 H :   -0.014977
  25 H :   -0.037325
  26 C :    0.106180
  27 H :   -0.002545
  28 H :   -0.049382
  29 H :   -0.023165
  30 C :    0.117141
  31 H :   -0.003064
  32 H :   -0.016793
  33 H :   -0.025923
  34 C :    0.111087
  35 H :   -0.001005
  36 H :   -0.051623
  37 H :   -0.013638
  38 C :    0.113773
  39 H :   -0.004106
  40 H :   -0.030859
  41 H :   -0.022393
  42 C :    0.111817
  43 H :   -0.028163
  44 H :   -0.032067
  45 H :   -0.003460
  46 C :    0.117113
  47 H :   -0.016731
  48 H :   -0.003073
  49 H :   -0.025911
  50 C :    0.111097
  51 H :   -0.013636
  52 C :    0.111748
  53 H :   -0.051626
  54 H :   -0.001019
  55 C :    0.113755
  56 H :   -0.032098
  57 H :   -0.003471
  58 H :   -0.028128
  59 C :   -0.373931
  60 H :   -0.004122
  61 H :   -0.022360
  62 H :   -0.030791
  63 C :    0.116319
  64 H :   -0.002764
  65 H :   -0.037300
  66 H :   -0.014976
  67 C :    0.106162
  68 H :   -0.023159
  69 H :   -0.049323
  70 H :   -0.002555

  Mayer bond orders larger than 0.100000
B(  0-W ,  1-C ) :   1.4015 B(  0-W ,  3-C ) :   1.6809 B(  0-W ,  5-C ) :   1.2042
B(  0-W ,  7-H ) :   0.5969 B(  0-W ,  8-H ) :   0.6174 B(  0-W ,  9-P ) :  -0.1664
B(  0-W , 10-C ) :   0.1346 B(  0-W , 17-P ) :  -0.1790 B(  0-W , 59-C ) :   0.1393
B(  1-C ,  2-O ) :   2.0040 B(  1-C ,  3-C ) :  -0.2414 B(  1-C ,  5-C ) :   0.1648
B(  3-C ,  4-O ) :   1.9156 B(  3-C ,  5-C ) :  -0.1374 B(  3-C ,  9-P ) :   0.3567
B(  3-C , 17-P ) :   0.3591 B(  5-C ,  6-O ) :   2.0101 B(  5-C ,  8-H ) :  -0.1042
B(  5-C ,  9-P ) :   0.1244 B(  5-C , 17-P ) :   0.1308 B(  7-H ,  8-H ) :   0.9729
B(  9-P , 10-C ) :   0.7918 B(  9-P , 12-C ) :   0.5383 B(  9-P , 14-C ) :   0.9301
B(  9-P , 17-P ) :  -0.3612 B(  9-P , 20-C ) :   0.1200 B(  9-P , 26-C ) :   0.2194
B(  9-P , 30-C ) :   0.2123 B(  9-P , 33-H ) :   0.1228 B(  9-P , 38-C ) :   0.1417
B(  9-P , 42-C ) :   0.1198 B( 10-C , 11-H ) :   0.7623 B( 10-C , 12-C ) :   0.1405
B( 10-C , 14-C ) :   0.3425 B( 10-C , 38-C ) :   0.7416 B( 10-C , 42-C ) :   0.8365
B( 12-C , 13-H ) :   0.8651 B( 12-C , 14-C ) :   0.2868 B( 12-C , 17-P ) :   0.1244
B( 12-C , 22-C ) :   0.6088 B( 12-C , 24-H ) :  -0.1294 B( 12-C , 26-C ) :   0.7625
B( 14-C , 15-H ) :   0.8439 B( 14-C , 30-C ) :   0.6244 B( 14-C , 34-C ) :   0.7615
B( 16-C , 17-P ) :   0.9429 B( 16-C , 19-H ) :   0.8431 B( 16-C , 20-C ) :   0.2850
B( 16-C , 46-C ) :   0.6277 B( 16-C , 50-C ) :   0.7622 B( 16-C , 59-C ) :   0.3365
B( 17-P , 20-C ) :   0.5545 B( 17-P , 46-C ) :   0.2091 B( 17-P , 49-H ) :   0.1237
B( 17-P , 52-C ) :   0.1213 B( 17-P , 55-C ) :   0.1443 B( 17-P , 59-C ) :   0.7821
B( 17-P , 67-C ) :   0.2121 B( 18-H , 59-C ) :   0.7620 B( 20-C , 21-H ) :   0.8642
B( 20-C , 59-C ) :   0.1387 B( 20-C , 63-C ) :   0.6097 B( 20-C , 66-H ) :  -0.1295
B( 20-C , 67-C ) :   0.7639 B( 22-C , 23-H ) :   0.9930 B( 22-C , 24-H ) :   1.0998
B( 22-C , 25-H ) :   1.0158 B( 22-C , 26-C ) :   0.1948 B( 26-C , 27-H ) :   0.9439
B( 26-C , 28-H ) :   1.0392 B( 26-C , 29-H ) :   0.9671 B( 28-H , 29-H ) :   0.1308
B( 30-C , 31-H ) :   1.0225 B( 30-C , 32-H ) :   1.0472 B( 30-C , 33-H ) :   0.9457
B( 30-C , 34-C ) :   0.1565 B( 34-C , 35-H ) :   0.9298 B( 34-C , 36-H ) :   0.9338
B( 34-C , 37-H ) :   0.9648 B( 36-H , 37-H ) :   0.1493 B( 38-C , 39-H ) :   0.9968
B( 38-C , 40-H ) :   1.0236 B( 38-C , 41-H ) :   0.9535 B( 38-C , 42-C ) :   0.1083
B( 42-C , 43-H ) :   0.9400 B( 42-C , 44-H ) :   0.9894 B( 42-C , 45-H ) :   0.9687
B( 43-H , 44-H ) :   0.1441 B( 46-C , 47-H ) :   1.0475 B( 46-C , 48-H ) :   1.0213
B( 46-C , 49-H ) :   0.9461 B( 46-C , 50-C ) :   0.1564 B( 50-C , 51-H ) :   0.9665
B( 50-C , 53-H ) :   0.9336 B( 50-C , 54-H ) :   0.9293 B( 51-H , 53-H ) :   0.1485
B( 52-C , 55-C ) :   0.1091 B( 52-C , 56-H ) :   0.9897 B( 52-C , 57-H ) :   0.9687
B( 52-C , 58-H ) :   0.9408 B( 52-C , 59-C ) :   0.8364 B( 55-C , 59-C ) :   0.7412
B( 55-C , 60-H ) :   0.9963 B( 55-C , 61-H ) :   0.9542 B( 55-C , 62-H ) :   1.0236
B( 56-H , 58-H ) :   0.1430 B( 63-C , 64-H ) :   0.9931 B( 63-C , 65-H ) :   1.0154
B( 63-C , 66-H ) :   1.1000 B( 63-C , 67-C ) :   0.1947 B( 67-C , 68-H ) :   0.9649
B( 67-C , 69-H ) :   1.0400 B( 67-C , 70-H ) :   0.9437 B( 68-H , 69-H ) :   0.1318

FINAL SINGLE POINT ENERGY     -1802.352400934062

DIPOLE MOMENT
-------------
                                X             Y             Z
Electronic contribution:      0.02002      -1.50105      17.20653
Nuclear contribution   :     -0.02072       1.50197     -16.46211
                        -----------------------------------------
Total Dipole Moment    :     -0.00070       0.00092       0.74442
                        -----------------------------------------
Magnitude (a.u.)       :      0.74442
Magnitude (Debye)      :      1.89217

Rotational constants in cm-1:     0.008070     0.003719     0.003518
Rotational constants in MHz :   241.945038   111.491092   105.477311

                             ****ORCA TERMINATED NORMALLY****
TOTAL RUN TIME: 0 days 2 hours 21 minutes 46 seconds 978 msec
