                         Program Version 4.2.0 -  RELEASE  -
|  1> # input to generate an atomic fitting density for Rh
|  2> # this file is use internally by ORCA
|  3> #
|  4> # atomic ground state (S=4): 1s2 2s2 2p6 3s2 3p6 4s2 3d10 4p6 5s2 4d7
|  5> #
|  6> ! RHF AllowRHF def2-SVP def2/J  NoMulliken NoLoewdin NoMayer NoPrintMOs
|  7>
|  8> %output print[p_atomdensfit] 2 end
|  9>
| 10> %scf
| 11>   guess hcore
| 12>   maxiter 1000
| 13>   maxdisk 500000
| 14>   SCFMode Conventional
| 15>   lshift 1.000000
| 16>   hftyp rohf
| 17>   rohf_case sahf
| 18>   rohf_numop   2
| 19>   rohf_norb[1] 5
| 20>   rohf_nel[1]  7
| 21> end
| 22>
| 23> %basis
| 24>   NewECP 45
| 25>     N_core 28
| 26>     lmax f
| 27>     s 4
| 28>       1      11.7200000000    225.3477535000  2
| 29>       2       5.8200000000     32.8231890000  2
| 30>       3      12.3100000000     30.0934557000  2
| 31>       4       6.1600000000      5.2184819000  2
| 32>     p 4
| 33>       1      10.4200000000    158.7094116000  2
| 34>       2       5.4500000000     26.4441005000  2
| 35>       3      12.3100000000     30.0934557000  2
| 36>       4       6.1600000000      5.2184819000  2
| 37>     d 4
| 38>       1       8.8200000000     62.7586257000  2
| 39>       2       3.8700000000     10.9787195000  2
| 40>       3      12.3100000000     30.0934557000  2
| 41>       4       6.1600000000      5.2184819000  2
| 42>     f 2
| 43>       1      12.3100000000    -30.0934557000  2
| 44>       2       6.1600000000     -5.2184819000  2
| 45>   end
| 46>   NewGTO 45
| 47>     s 2
| 48>      1      17.0000000000     -0.9383793180
| 49>      2      13.9105816940      1.9247376672
| 50>     s 1
| 51>      1       5.2481265288      1.0000000000
| 52>     s 1
| 53>      1       1.2262575928      1.0000000000
| 54>     s 1
| 55>      1       0.5393021635      1.0000000000
| 56>     s 1
| 57>      1       0.1013073038      1.0000000000
| 58>     s 1
| 59>      1       0.0371241390      1.0000000000
| 60>     p 4
| 61>      1      11.7671036310      0.0676935579
| 62>      2       6.7485133083     -0.2700677651
| 63>      3       1.7502679834      0.5577445140
| 64>      4       0.8432116613      0.5760017293
| 65>     p 1
| 66>      1       0.3829554476      1.0000000000
| 67>     p 1
| 68>      1       0.1150000000      1.0000000000
| 69>     p 1
| 70>      1       0.0370000000      1.0000000000
| 71>     d 4
| 72>      1      19.8578301360      0.0068204289
| 73>      2      10.0613781390     -0.0223899551
| 74>      3       2.2619546477      0.3862288430
| 75>      4       0.9709884504      0.6853960058
| 76>     d 1
| 77>      1       0.3839119530      1.0000000000
| 78>     d 1
| 79>      1       0.1353702690      1.0000000000
| 80>   end
| 81>   NewAuxGTO 45
| 82>     S 1
| 83>      1 1310.72 1.0
| 84>     S 1
| 85>      1  655.36 1.0
| 86>     S 1
| 87>      1  327.68 1.0
| 88>     S 1
| 89>      1  163.84 1.0
| 90>     S 1
| 91>      1   81.82 1.0
| 92>     S 1
| 93>      1   40.96 1.0
| 94>     S 1
| 95>      1   20.48 1.0
| 96>     S 1
| 97>      1   10.24 1.0
| 98>     S 1
| 99>      1    5.12 1.0
|100>     S 1
|101>      1    2.56 1.0
|102>     S 1
|103>      1    1.28 1.0
|104>     S 1
|105>      1    0.64 1.0
|106>     S 1
|107>      1    0.32 1.0
|108>     S 1
|109>      1    0.16 1.0
|110>     S 1
|111>      1    0.08 1.0
|112>     S 1
|113>      1    0.04 1.0
|114>     S 1
|115>      1    0.02 1.0
|116>     S 1
|117>      1    0.01 1.0
|118>   end
|119> end
|120>
|121> * xyz 0 4
|122> 45  0.0 0.0 0.0
|123> *
|124>
|125>
|126>                          ****END OF INPUT****

CARTESIAN COORDINATES (ANGSTROEM)
---------------------------------
  Rh     0.000000    0.000000    0.000000

 Total Charge           Charge          ....    0
 Multiplicity           Mult            ....    4
 Number of Electrons    NEL             ....   17
 Basis Dimension        Dim             ....   33

ORBITAL ENERGIES
----------------

  NO   OCC          E(Eh)            E(eV)
   0   2.0000      -3.821438      -103.9866
   1   2.0000      -2.428783       -66.0905
   2   2.0000      -2.423486       -65.9464
   3   2.0000      -2.421269       -65.8861
   4   2.0000      -0.453163       -12.3312
   5   1.4000      -0.489579       -13.3221
   6   1.4000      -0.486226       -13.2309
   7   1.4000      -0.480229       -13.0677
   8   1.4000      -0.465853       -12.6765
   9   1.4000      -0.255098        -6.9416
  10   0.0000       0.004690         0.1276
  11   0.0000       0.007484         0.2036
  12   0.0000       0.008631         0.2349
  13   0.0000       0.127418         3.4672
  14   0.0000       0.206024         5.6062

CleanUpVectors: The p-vectors have cracked symmetry
CleanUpVectors: The p-vectors have cracked symmetry
CleanUpVectors: The p-vectors have cracked symmetry
CleanUpVectors: The d-vectors have cracked symmetry at i=4
CleanUpVectors: The d-vectors have cracked symmetry at i=5
CleanUpVectors: The d-vectors have cracked symmetry at i=6
CleanUpVectors: The d-vectors have cracked symmetry at i=7
CleanUpVectors: The d-vectors have cracked symmetry at i=8
CleanUpVectors: The p-vectors have cracked symmetry
CleanUpVectors: The p-vectors have cracked symmetry
CleanUpVectors: The p-vectors have cracked symmetry
CleanUpVectors: The p-vectors have cracked symmetry
CleanUpVectors: The p-vectors have cracked symmetry
CleanUpVectors: The p-vectors have cracked symmetry
CleanUpVectors: The d-vectors have cracked symmetry at i=17
CleanUpVectors: The d-vectors have cracked symmetry at i=18
CleanUpVectors: The d-vectors have cracked symmetry at i=19
CleanUpVectors: The d-vectors have cracked symmetry at i=20
CleanUpVectors: The d-vectors have cracked symmetry at i=21
CleanUpVectors: The p-vectors have cracked symmetry
CleanUpVectors: The p-vectors have cracked symmetry
CleanUpVectors: The p-vectors have cracked symmetry
CleanUpVectors: The d-vectors have cracked symmetry at i=25
CleanUpVectors: The d-vectors have cracked symmetry at i=26
CleanUpVectors: The d-vectors have cracked symmetry at i=27
CleanUpVectors: The d-vectors have cracked symmetry at i=28
--------------------------
ATOM BASIS FOR ELEMENT Rh
--------------------------
 NewGTO Rh
 S 7
    1         17.000000000000        -0.166853629021
    2         13.910581694000         0.342238430158
    3          5.248126528800        -0.676849217910
    4          1.226257592800         0.887933241880
    5          0.539302163500         0.417737304797
    6          0.101307303800         0.010765452531
    7          0.037124139000        -0.000433425016
 P 20
    1         11.767103631000         0.040269657492
    2          6.748513308300        -0.160658365988
    3          1.750267983400         0.331791993852
    4          0.843211661300         0.342652876774
    5         11.767103631000        -0.040760732565
    6          6.748513308300         0.162617541303
    7          1.750267983400        -0.335838086817
    8          0.843211661300        -0.346831414592
    9         11.767103631000         0.014321928791
   10          6.748513308300        -0.057138248016
   11          1.750267983400         0.118002029450
   12          0.843211661300         0.121864709231
   13          0.382955447600         0.110653596854
   14          0.382955447600        -0.112002980648
   15          0.382955447600         0.039354020701
   16          0.115000000000         0.004994157350
   17          0.115000000000        -0.005055059437
   18          0.115000000000         0.001776175175
   19          0.037000000000        -0.000276314695
   20          0.037000000000         0.000279684261
 D 20
    1         17.000000000000         0.000006254069
    2         13.910581694000        -0.000015676871
    3          5.248126528800         0.000087718309
    4          1.226257592800        -0.000798975867
    5          0.539302163500         0.000464629394
    6          0.101307303800         0.005502196860
    7          0.037124139000        -0.013418701057
    8         19.857830136000        -0.000332560588
    9         10.061378139000         0.001091722638
   10          2.261954647700        -0.018832318753
   11          0.970988450400        -0.033419554980
   12         19.857830136000         0.000047320975
   13         10.061378139000        -0.000155344264
   14          2.261954647700         0.002679703243
   15          0.970988450400         0.004755361835
   16         19.857830136000         0.003310526077
   17         10.061378139000        -0.010867722734
   18          2.261954647700         0.187469244975
   19          0.970988450400         0.332680155936
   20         19.857830136000         0.001496354889
 D 20
    1         19.857830136000         0.003026640914
    2         10.061378139000        -0.009935790720
    3          2.261954647700         0.171393329600
    4          0.970988450400         0.304152073720
    5         19.857830136000        -0.000861701963
    6         10.061378139000         0.002828776392
    7          2.261954647700        -0.048796660289
    8          0.970988450400        -0.086593833331
    9         19.857830136000        -0.001710396284
   10         10.061378139000         0.005614851582
   11          2.261954647700        -0.096856720813
   12          0.970988450400        -0.171880507588
   13         19.857830136000        -0.000088768809
   14         10.061378139000         0.000291408309
   15          2.261954647700        -0.005026820894
   16          0.970988450400        -0.008920522185
   17         19.857830136000         0.002682897048
   18         10.061378139000        -0.008807355859
   19          2.261954647700         0.151927721518
   20          0.970988450400         0.269608692841
 P 20
    1         11.767103631000         0.010827736237
    2          6.748513308300        -0.043197944049
    3          1.750267983400         0.089212484506
    4          0.843211661300         0.092132766994
    5         11.767103631000        -0.010959776878
    6          6.748513308300         0.043724728603
    7          1.750267983400        -0.090300401070
    8          0.843211661300        -0.093256295431
    9         11.767103631000         0.003850891143
   10          6.748513308300        -0.015363375730
   11          1.750267983400         0.031728475729
   12          0.843211661300         0.032767076016
   13          0.382955447600         0.185035041958
   14          0.382955447600        -0.187291482726
   15          0.382955447600         0.065807828022
   16          0.115000000000        -1.094534246656
   17          0.115000000000         1.107881727594
   18          0.115000000000        -0.389271787146
   19          0.037000000000         0.706392777337
   20          0.037000000000        -0.715007002209
 D 20
    1         17.000000000000        -0.000015070504
    2         13.910581694000         0.000037776743
    3          5.248126528800        -0.000212126720
    4          1.226257592800         0.002052028147
    5          0.539302163500        -0.000722991205
    6          0.101307303800        -0.026228022474
    7          0.037124139000         0.012844374571
    8         19.857830136000        -0.000338260043
    9         10.061378139000         0.001110432685
   10          2.261954647700        -0.019155068838
   11          0.970988450400        -0.033992302518
   12         19.857830136000         0.001323039046
   13         10.061378139000        -0.004343243699
   14          2.261954647700         0.074921364562
   15          0.970988450400         0.132954348053
   16         19.857830136000        -0.000279201282
   17         10.061378139000         0.000916555874
   18          2.261954647700        -0.015810675511
   19          0.970988450400        -0.028057391467
   20         19.857830136000        -0.000502246259
 P 20
    1         11.767103631000         0.062112675418
    2          6.748513308300        -0.247802478626
    3          1.750267983400         0.511762197751
    4          0.843211661300         0.528514227385
    5         11.767103631000        -0.062870118828
    6          6.748513308300         0.250824347398
    7          1.750267983400        -0.518002967468
    8          0.843211661300        -0.534959282529
    9         11.767103631000         0.022090411733
   10          6.748513308300        -0.088131106001
   11          1.750267983400         0.182008544657
   12          0.843211661300         0.187966414439
   13          0.382955447600        -1.476564170302
   14          0.382955447600         1.494570379044
   15          0.382955447600        -0.525140967641
   16          0.115000000000         0.882753522748
   17          0.115000000000        -0.893518408229
   18          0.115000000000         0.313951840664
   19          0.037000000000        -0.306505252783
   20          0.037000000000         0.310242982354
 D 20
    1         17.000000000000         0.000379837304
    2         13.910581694000        -0.000952125866
    3          5.248126528800         0.005221839089
    4          1.226257592800        -0.077552153432
    5          0.539302163500         0.182661193631
    6          0.101307303800        -0.438975660480
    7          0.037124139000         0.512475102911
    8         19.857830136000        -0.001541961271
    9         10.061378139000         0.005061916799
   10          2.261954647700        -0.087318543513
   11          0.970988450400        -0.154954198892
   12         19.857830136000         0.006128354424
   13         10.061378139000        -0.020118028119
   14          2.261954647700         0.347037887715
   15          0.970988450400         0.615848314833
   16         19.857830136000        -0.001550950319
   17         10.061378139000         0.005091425849
   18          2.261954647700        -0.087827577410
   19          0.970988450400        -0.155857522935
   20         19.857830136000        -0.002443934761
 S 20
    1         17.000000000000        -0.239859666435
    2         13.910581694000         0.491983280081
    3          5.248126528800        -1.022417273834
    4          1.226257592800         3.517889260074
    5          0.539302163500        -3.588043313136
    6          0.101307303800         1.551279599358
    7          0.037124139000        -0.662951893340
    8         19.857830136000        -0.010527692747
    9         10.061378139000         0.017510575439
   10          2.261954647700        -0.067907590376
   11          0.970988450400        -0.051730342934
   12         19.857830136000         0.050782080847
   13         10.061378139000        -0.084465179501
   14          2.261954647700         0.327563581819
   15          0.970988450400         0.249529932169
   16         19.857830136000        -0.036161735726
   17         10.061378139000         0.060147348202
   18          2.261954647700        -0.233256839451
   19          0.970988450400        -0.177689360347
   20         19.857830136000        -0.030881937044
 S 20
    1         17.000000000000        -1.717112335949
    2         13.910581694000         3.522020070582
    3          5.248126528800        -3.292358839862
    4          1.226257592800         2.121943115395
    5          0.539302163500        -1.263475037799
    6          0.101307303800         0.359861608620
    7          0.037124139000        -0.153795581816
    8         19.857830136000        -0.000014466243
    9         10.061378139000         0.000024061515
   10          2.261954647700        -0.000093312726
   11          0.970988450400        -0.000071083354
   12         19.857830136000         0.000066761371
   13         10.061378139000        -0.000111043326
   14          2.261954647700         0.000430636031
   15          0.970988450400         0.000328048005
   16         19.857830136000        -0.000041055544
   17         10.061378139000         0.000068287156
   18          2.261954647700        -0.000264823749
   19          0.970988450400        -0.000201736261
   20         19.857830136000        -0.000037641893
 S 20
    1         17.000000000000        -1.910622424085
    2         13.910581694000         3.918934355109
    3          5.248126528800        -1.540488068472
    4          1.226257592800         0.698339979930
    5          0.539302163500        -0.397144593973
    6          0.101307303800         0.112001819388
    7          0.037124139000        -0.047986335787
    8         19.857830136000        -0.000000913861
    9         10.061378139000         0.000001520013
   10          2.261954647700        -0.000005894748
   11          0.970988450400        -0.000004490475
   12         19.857830136000         0.000004220991
   13         10.061378139000        -0.000007020719
   14          2.261954647700         0.000027226981
   15          0.970988450400         0.000020740849
   16         19.857830136000        -0.000002603695
   17         10.061378139000         0.000004330693
   18          2.261954647700        -0.000016794817
   19          0.970988450400        -0.000012793881
   20         19.857830136000        -0.000002383539
 end
  // -----------------------------------------------
  // The basis set
  // -----------------------------------------------
  BAS[ATNO] = new BFNGauss[NSH];
  // Basis function   1 L = s
  InitBFNGauss(BAS[ATNO][  0]);
  BAS[ATNO][  0].l  = 0;
  BAS[ATNO][  0].ng = 7;
  BAS[ATNO][  0].a[  0] =        17.000000000000;     BAS[ATNO][  0].d[  0] =        -0.166853629021;
  BAS[ATNO][  0].a[  1] =        13.910581694000;     BAS[ATNO][  0].d[  1] =         0.342238430158;
  BAS[ATNO][  0].a[  2] =         5.248126528800;     BAS[ATNO][  0].d[  2] =        -0.676849217910;
  BAS[ATNO][  0].a[  3] =         1.226257592800;     BAS[ATNO][  0].d[  3] =         0.887933241880;
  BAS[ATNO][  0].a[  4] =         0.539302163500;     BAS[ATNO][  0].d[  4] =         0.417737304797;
  BAS[ATNO][  0].a[  5] =         0.101307303800;     BAS[ATNO][  0].d[  5] =         0.010765452531;
  BAS[ATNO][  0].a[  6] =         0.037124139000;     BAS[ATNO][  0].d[  6] =        -0.000433425016;

FINAL SINGLE POINT ENERGY      -109.685678099790

DIPOLE MOMENT
-------------
                                X             Y             Z
Electronic contribution:     -0.00000      -0.00000       0.00000
Nuclear contribution   :      0.00000       0.00000       0.00000
                        -----------------------------------------
Total Dipole Moment    :     -0.00000      -0.00000       0.00000
                        -----------------------------------------
Magnitude (a.u.)       :      0.00000
Magnitude (Debye)      :      0.00000

Rotational constants in cm-1:     0.000000     0.000000     0.000000
Rotational constants in MHz :     0.000000     0.000000     0.000000

                             ****ORCA TERMINATED NORMALLY****
TOTAL RUN TIME: 0 days 0 hours 0 minutes 1 seconds 177 msec
