                         Program Version 4.2.0 -  RELEASE  -
|  1> #
|  2> # MOR25_pr01 wB97X-V/Def2-TZVPPD
|  3> #
|  4> ! wb97x-v def2-tzvppd def2/jk grid4 nofinalgrid
|  5>
|  6> *xyz 0 1
|  7> Cr      -0.000002    0.000001   -0.000002
|  8> O       -2.697134   -0.646688    1.294578
|  9> C       -1.683963   -0.403751    0.808266
| 10> C        0.796729   -1.469777    0.925736
| 11> O        1.276107   -2.354083    1.482723
| 12> C        1.683955    0.403738   -0.808274
| 13> O        2.697131    0.646654   -1.294589
| 14> C        0.426065    1.152703    1.463476
| 15> O        0.682414    1.846242    2.344001
| 16> C       -0.426072   -1.152714   -1.463481
| 17> O       -0.682416   -1.846267   -2.343994
| 18> C       -0.796727    1.469805   -0.925736
| 19> O       -1.276085    2.354134   -1.482702
| 20> *
| 21>
| 22> %maxcore 5000
| 23>
| 24> %pal
| 25> nprocs = 24
| 26> end
| 27>
| 28>
| 29>                          ****END OF INPUT****

CARTESIAN COORDINATES (ANGSTROEM)
---------------------------------
  Cr    -0.000002    0.000001   -0.000002
  O     -2.697134   -0.646688    1.294578
  C     -1.683963   -0.403751    0.808266
  C      0.796729   -1.469777    0.925736
  O      1.276107   -2.354083    1.482723
  C      1.683955    0.403738   -0.808274
  O      2.697131    0.646654   -1.294589
  C      0.426065    1.152703    1.463476
  O      0.682414    1.846242    2.344001
  C     -0.426072   -1.152714   -1.463481
  O     -0.682416   -1.846267   -2.343994
  C     -0.796727    1.469805   -0.925736
  O     -1.276085    2.354134   -1.482702

 Total Charge           Charge          ....    0
 Multiplicity           Mult            ....    1
 Number of Electrons    NEL             ....  108
 Basis Dimension        Dim             ....  529

ORBITAL ENERGIES
----------------

  NO   OCC          E(Eh)            E(eV)
   0   2.0000    -215.677020     -5868.8701
   1   2.0000     -24.818848      -675.3552
   2   2.0000     -21.102237      -574.2211
   3   2.0000     -21.102237      -574.2211
   4   2.0000     -21.102237      -574.2211
   5   2.0000     -19.315775      -525.6090
   6   2.0000     -19.315775      -525.6089
   7   2.0000     -19.315772      -525.6089
   8   2.0000     -19.315771      -525.6089
   9   2.0000     -19.315771      -525.6089
  10   2.0000     -19.315764      -525.6087
  11   2.0000     -10.416788      -283.4552
  12   2.0000     -10.416779      -283.4550
  13   2.0000     -10.416777      -283.4549
  14   2.0000     -10.416776      -283.4549
  15   2.0000     -10.416776      -283.4549
  16   2.0000     -10.416774      -283.4548
  17   2.0000      -3.016359       -82.0793
  18   2.0000      -1.962654       -53.4065
  19   2.0000      -1.962653       -53.4065
  20   2.0000      -1.962652       -53.4065
  21   2.0000      -1.287979       -35.0477
  22   2.0000      -1.286737       -35.0139
  23   2.0000      -1.286736       -35.0139
  24   2.0000      -1.286736       -35.0139
  25   2.0000      -1.286252       -35.0007
  26   2.0000      -1.286251       -35.0007
  27   2.0000      -0.757751       -20.6195
  28   2.0000      -0.704831       -19.1794
  29   2.0000      -0.704831       -19.1794
  30   2.0000      -0.704830       -19.1794
  31   2.0000      -0.699591       -19.0368
  32   2.0000      -0.699590       -19.0368
  33   2.0000      -0.634509       -17.2659
  34   2.0000      -0.610514       -16.6129
  35   2.0000      -0.610513       -16.6129
  36   2.0000      -0.610513       -16.6129
  37   2.0000      -0.605478       -16.4759
  38   2.0000      -0.605478       -16.4759
  39   2.0000      -0.605477       -16.4759
  40   2.0000      -0.586980       -15.9725
  41   2.0000      -0.586980       -15.9725
  42   2.0000      -0.586980       -15.9725
  43   2.0000      -0.579289       -15.7633
  44   2.0000      -0.579289       -15.7632
  45   2.0000      -0.579288       -15.7632
  46   2.0000      -0.566725       -15.4214
  47   2.0000      -0.566723       -15.4213
  48   2.0000      -0.533720       -14.5233
  49   2.0000      -0.533719       -14.5232
  50   2.0000      -0.533718       -14.5232
  51   2.0000      -0.345572        -9.4035
  52   2.0000      -0.345569        -9.4034
  53   2.0000      -0.345569        -9.4034
  54   0.0000       0.023908         0.6506
  55   0.0000       0.023910         0.6506
  56   0.0000       0.023910         0.6506
  57   0.0000       0.037945         1.0325
  58   0.0000       0.046067         1.2536

MULLIKEN ATOMIC CHARGES
-----------------------
   0 Cr:   -1.260235
   1 O :   -0.222168
   2 C :    0.432208
   3 C :    0.432567
   4 O :   -0.222171
   5 C :    0.432197
   6 O :   -0.222174
   7 C :    0.431774
   8 O :   -0.222073
   9 C :    0.432191
  10 O :   -0.222215
  11 C :    0.432234
  12 O :   -0.222135
Sum of atomic charges:    0.0000000

LOEWDIN ATOMIC CHARGES
----------------------
   0 Cr:   -0.535230
   1 O :    0.164052
   2 C :   -0.074844
   3 C :   -0.074847
   4 O :    0.164051
   5 C :   -0.074847
   6 O :    0.164050
   7 C :   -0.074853
   8 O :    0.164048
   9 C :   -0.074846
  10 O :    0.164050
  11 C :   -0.074837
  12 O :    0.164052

  Mayer bond orders larger than 0.100000
B(  0-Cr,  1-O ) :   0.1234 B(  0-Cr,  2-C ) :   0.9428 B(  0-Cr,  3-C ) :   0.9440
B(  0-Cr,  4-O ) :   0.1233 B(  0-Cr,  5-C ) :   0.9436 B(  0-Cr,  6-O ) :   0.1232
B(  0-Cr,  7-C ) :   0.9438 B(  0-Cr,  8-O ) :   0.1229 B(  0-Cr,  9-C ) :   0.9443
B(  0-Cr, 10-O ) :   0.1232 B(  0-Cr, 11-C ) :   0.9441 B(  0-Cr, 12-O ) :   0.1231
B(  1-O ,  2-C ) :   2.2155 B(  3-C ,  4-O ) :   2.2159 B(  5-C ,  6-O ) :   2.2158
B(  7-C ,  8-O ) :   2.2162 B(  9-C , 10-O ) :   2.2159 B( 11-C , 12-O ) :   2.2161

FINAL SINGLE POINT ENERGY     -1724.480745276692

DIPOLE MOMENT
-------------
                                X             Y             Z
Electronic contribution:     -0.00005       0.00001      -0.00004
Nuclear contribution   :      0.00001      -0.00000       0.00001
                        -----------------------------------------
Total Dipole Moment    :     -0.00004       0.00001      -0.00004
                        -----------------------------------------
Magnitude (a.u.)       :      0.00005
Magnitude (Debye)      :      0.00013

Rotational constants in cm-1:     0.021751     0.021751     0.021751
Rotational constants in MHz :   652.090818   652.088663   652.088001

                             ****ORCA TERMINATED NORMALLY****
TOTAL RUN TIME: 0 days 0 hours 3 minutes 15 seconds 842 msec
