                         Program Version 4.2.0 -  RELEASE  -
|  1> #
|  2> # MOR24_pme3 wB97X-V/Def2-TZVPPD
|  3> #
|  4> ! wb97x-v def2-tzvppd def2/jk grid4 nofinalgrid
|  5>
|  6> *xyz 0 1
|  7> P        0.000014   -0.000022   -0.608033
|  8> C        1.496142   -0.644859    0.281510
|  9> H        1.381991   -0.595756    1.371521
| 10> H        2.374450   -0.059896   -0.010082
| 11> H        1.674284   -1.684941   -0.010215
| 12> C       -0.189596    1.618079    0.281483
| 13> H       -0.175035    1.494773    1.371519
| 14> H       -1.135286    2.086341   -0.010098
| 15> H        0.622176    2.292253   -0.010285
| 16> C       -1.306577   -0.973225    0.281488
| 17> H       -1.206743   -0.899098    1.371498
| 18> H       -1.239562   -2.026308   -0.010273
| 19> H       -2.296301   -0.607013   -0.009976
| 20> *
| 21>
| 22> %maxcore 5000
| 23>
| 24> %pal
| 25> nprocs = 24
| 26> end
| 27>
| 28>
| 29>                          ****END OF INPUT****

CARTESIAN COORDINATES (ANGSTROEM)
---------------------------------
  P      0.000014   -0.000022   -0.608033
  C      1.496142   -0.644859    0.281510
  H      1.381991   -0.595756    1.371521
  H      2.374450   -0.059896   -0.010082
  H      1.674284   -1.684941   -0.010215
  C     -0.189596    1.618079    0.281483
  H     -0.175035    1.494773    1.371519
  H     -1.135286    2.086341   -0.010098
  H      0.622176    2.292253   -0.010285
  C     -1.306577   -0.973225    0.281488
  H     -1.206743   -0.899098    1.371498
  H     -1.239562   -2.026308   -0.010273
  H     -2.296301   -0.607013   -0.009976

 Total Charge           Charge          ....    0
 Multiplicity           Mult            ....    1
 Number of Electrons    NEL             ....   42
 Basis Dimension        Dim             ....  312

ORBITAL ENERGIES
----------------

  NO   OCC          E(Eh)            E(eV)
   0   2.0000     -77.060488     -2096.9225
   1   2.0000     -10.266251      -279.3589
   2   2.0000     -10.266250      -279.3589
   3   2.0000     -10.266242      -279.3587
   4   2.0000      -6.640695      -180.7025
   5   2.0000      -4.794526      -130.4657
   6   2.0000      -4.794525      -130.4657
   7   2.0000      -4.789192      -130.3205
   8   2.0000      -0.893782       -24.3211
   9   2.0000      -0.818094       -22.2615
  10   2.0000      -0.818091       -22.2614
  11   2.0000      -0.647989       -17.6327
  12   2.0000      -0.550957       -14.9923
  13   2.0000      -0.535816       -14.5803
  14   2.0000      -0.535804       -14.5800
  15   2.0000      -0.506099       -13.7717
  16   2.0000      -0.506094       -13.7715
  17   2.0000      -0.491891       -13.3850
  18   2.0000      -0.424543       -11.5524
  19   2.0000      -0.424536       -11.5522
  20   2.0000      -0.321661        -8.7528
  21   0.0000       0.064644         1.7590
  22   0.0000       0.078304         2.1308
  23   0.0000       0.078306         2.1308
  24   0.0000       0.100507         2.7349
  25   0.0000       0.127053         3.4573

MULLIKEN ATOMIC CHARGES
-----------------------
   0 P :   -0.087668
   1 C :   -0.229713
   2 H :    0.090232
   3 H :    0.084200
   4 H :    0.084512
   5 C :   -0.229676
   6 H :    0.090038
   7 H :    0.084369
   8 H :    0.084533
   9 C :   -0.230117
  10 H :    0.090191
  11 H :    0.084448
  12 H :    0.084652
Sum of atomic charges:    0.0000000

LOEWDIN ATOMIC CHARGES
----------------------
   0 P :    0.855293
   1 C :   -0.095388
   2 H :   -0.058440
   3 H :   -0.065634
   4 H :   -0.065634
   5 C :   -0.095406
   6 H :   -0.058422
   7 H :   -0.065631
   8 H :   -0.065640
   9 C :   -0.095387
  10 H :   -0.058437
  11 H :   -0.065639
  12 H :   -0.065634

  Mayer bond orders larger than 0.100000
B(  0-P ,  1-C ) :   0.8843 B(  0-P ,  5-C ) :   0.8842 B(  0-P ,  9-C ) :   0.8842
B(  1-C ,  2-H ) :   0.9526 B(  1-C ,  3-H ) :   1.0044 B(  1-C ,  4-H ) :   1.0043
B(  5-C ,  6-H ) :   0.9526 B(  5-C ,  7-H ) :   1.0044 B(  5-C ,  8-H ) :   1.0044
B(  9-C , 10-H ) :   0.9526 B(  9-C , 11-H ) :   1.0044 B(  9-C , 12-H ) :   1.0042

FINAL SINGLE POINT ENERGY      -461.068851444454

DIPOLE MOMENT
-------------
                                X             Y             Z
Electronic contribution:      0.00007      -0.00035      -4.28832
Nuclear contribution   :     -0.00004       0.00039       4.80319
                        -----------------------------------------
Total Dipole Moment    :      0.00003       0.00004       0.51487
                        -----------------------------------------
Magnitude (a.u.)       :      0.51487
Magnitude (Debye)      :      1.30868

Rotational constants in cm-1:     0.191522     0.191510     0.123399
Rotational constants in MHz :  5741.693239  5741.320508  3699.411170

                             ****ORCA TERMINATED NORMALLY****
TOTAL RUN TIME: 0 days 0 hours 0 minutes 21 seconds 961 msec
