                         Program Version 4.2.0 -  RELEASE  -
|  1> #
|  2> # MOR29_pr11 wB97X-V/Def2-TZVPPD
|  3> #
|  4> ! wb97x-v def2-tzvppd def2/jk grid4 nofinalgrid
|  5>
|  6> *xyz 0 1
|  7> C       -1.039290   -2.639432    0.178033
|  8> C       -2.178017   -3.305635   -0.258724
|  9> C       -3.296391   -2.550827   -0.605540
| 10> C       -3.231094   -1.166811   -0.503382
| 11> H       -0.140242   -3.178187    0.457229
| 12> H       -2.180740   -4.388297   -0.324253
| 13> H       -4.206388   -3.031472   -0.950846
| 14> H       -4.092575   -0.563880   -0.765153
| 15> N       -0.970920   -1.306381    0.272680
| 16> C       -2.050199   -0.559703   -0.062217
| 17> C       -1.896627    0.903347    0.053727
| 18> N       -0.715899    1.344389    0.547476
| 19> C       -0.493208    2.660516    0.650101
| 20> C       -2.657172    3.172580   -0.229603
| 21> C       -1.435330    3.611046    0.276469
| 22> H        0.481431    2.944320    1.031789
| 23> H       -1.207232    4.666962    0.373432
| 24> C       -2.888209    1.807210   -0.342538
| 25> H       -3.826394    1.449184   -0.749672
| 26> H       -3.416704    3.882938   -0.540755
| 27> Pd       0.796966   -0.183618    0.920224
| 28> C        2.296006    1.038742    1.594093
| 29> H        1.829551    1.776866    2.255021
| 30> H        2.734263    1.506656    0.710942
| 31> H        3.050202    0.480142    2.149825
| 32> C        2.162541   -1.690695    1.159536
| 33> H        3.086547   -1.399047    0.660601
| 34> H        1.744149   -2.568037    0.656862
| 35> H        2.334771   -1.896294    2.218292
| 36> I        1.451603    0.093477   -1.772045
| 37> C        0.284011   -0.444486    2.913651
| 38> H       -0.123661   -1.453796    3.016265
| 39> H       -0.476481    0.304111    3.153737
| 40> H        1.159721   -0.321172    3.551993
| 41> *
| 42>
| 43> %maxcore 5000
| 44>
| 45> %pal
| 46> nprocs = 24
| 47> end
| 48>
| 49>
| 50>                          ****END OF INPUT****

CARTESIAN COORDINATES (ANGSTROEM)
---------------------------------
  C     -1.039290   -2.639432    0.178033
  C     -2.178017   -3.305635   -0.258724
  C     -3.296391   -2.550827   -0.605540
  C     -3.231094   -1.166811   -0.503382
  H     -0.140242   -3.178187    0.457229
  H     -2.180740   -4.388297   -0.324253
  H     -4.206388   -3.031472   -0.950846
  H     -4.092575   -0.563880   -0.765153
  N     -0.970920   -1.306381    0.272680
  C     -2.050199   -0.559703   -0.062217
  C     -1.896627    0.903347    0.053727
  N     -0.715899    1.344389    0.547476
  C     -0.493208    2.660516    0.650101
  C     -2.657172    3.172580   -0.229603
  C     -1.435330    3.611046    0.276469
  H      0.481431    2.944320    1.031789
  H     -1.207232    4.666962    0.373432
  C     -2.888209    1.807210   -0.342538
  H     -3.826394    1.449184   -0.749672
  H     -3.416704    3.882938   -0.540755
  Pd     0.796966   -0.183618    0.920224
  C      2.296006    1.038742    1.594093
  H      1.829551    1.776866    2.255021
  H      2.734263    1.506656    0.710942
  H      3.050202    0.480142    2.149825
  C      2.162541   -1.690695    1.159536
  H      3.086547   -1.399047    0.660601
  H      1.744149   -2.568037    0.656862
  H      2.334771   -1.896294    2.218292
  I      1.451603    0.093477   -1.772045
  C      0.284011   -0.444486    2.913651
  H     -0.123661   -1.453796    3.016265
  H     -0.476481    0.304111    3.153737
  H      1.159721   -0.321172    3.551993

 Total Charge           Charge          ....    0
 Multiplicity           Mult            ....    1
 Number of Electrons    NEL             ....  152
 Basis Dimension        Dim             ....  959

ORBITAL ENERGIES
----------------

  NO   OCC          E(Eh)            E(eV)
   0   2.0000     -14.470690      -393.7675
   1   2.0000     -14.469913      -393.7463
   2   2.0000     -10.362713      -281.9838
   3   2.0000     -10.361873      -281.9609
   4   2.0000     -10.345845      -281.5248
   5   2.0000     -10.344568      -281.4900
   6   2.0000     -10.329635      -281.0837
   7   2.0000     -10.328650      -281.0569
   8   2.0000     -10.322091      -280.8784
   9   2.0000     -10.321308      -280.8571
  10   2.0000     -10.317118      -280.7431
  11   2.0000     -10.315935      -280.7109
  12   2.0000     -10.259347      -279.1710
  13   2.0000     -10.255740      -279.0729
  14   2.0000     -10.254194      -279.0308
  15   2.0000      -6.848698      -186.3625
  16   2.0000      -4.875131      -132.6591
  17   2.0000      -4.870782      -132.5407
  18   2.0000      -4.870693      -132.5383
  19   2.0000      -3.620814       -98.5274
  20   2.0000      -2.303576       -62.6835
  21   2.0000      -2.299855       -62.5822
  22   2.0000      -2.299623       -62.5759
  23   2.0000      -1.928789       -52.4850
  24   2.0000      -1.927455       -52.4487
  25   2.0000      -1.927378       -52.4466
  26   2.0000      -1.923682       -52.3461
  27   2.0000      -1.923661       -52.3455
  28   2.0000      -1.139214       -30.9996
  29   2.0000      -1.113090       -30.2887
  30   2.0000      -0.981132       -26.6980
  31   2.0000      -0.972409       -26.4606
  32   2.0000      -0.968910       -26.3654
  33   2.0000      -0.911867       -24.8132
  34   2.0000      -0.821918       -22.3655
  35   2.0000      -0.813177       -22.1277
  36   2.0000      -0.811776       -22.0895
  37   2.0000      -0.785888       -21.3851
  38   2.0000      -0.784652       -21.3515
  39   2.0000      -0.773084       -21.0367
  40   2.0000      -0.764427       -20.8011
  41   2.0000      -0.721420       -19.6308
  42   2.0000      -0.701773       -19.0962
  43   2.0000      -0.657727       -17.8977
  44   2.0000      -0.653673       -17.7874
  45   2.0000      -0.633419       -17.2362
  46   2.0000      -0.614431       -16.7195
  47   2.0000      -0.593251       -16.1432
  48   2.0000      -0.585897       -15.9431
  49   2.0000      -0.580604       -15.7990
  50   2.0000      -0.569430       -15.4950
  51   2.0000      -0.560231       -15.2447
  52   2.0000      -0.550446       -14.9784
  53   2.0000      -0.533484       -14.5168
  54   2.0000      -0.525399       -14.2968
  55   2.0000      -0.520908       -14.1746
  56   2.0000      -0.517301       -14.0765
  57   2.0000      -0.504551       -13.7295
  58   2.0000      -0.484922       -13.1954
  59   2.0000      -0.480456       -13.0739
  60   2.0000      -0.476435       -12.9645
  61   2.0000      -0.475667       -12.9436
  62   2.0000      -0.462249       -12.5784
  63   2.0000      -0.441875       -12.0240
  64   2.0000      -0.436455       -11.8765
  65   2.0000      -0.426933       -11.6174
  66   2.0000      -0.423968       -11.5368
  67   2.0000      -0.393817       -10.7163
  68   2.0000      -0.390911       -10.6372
  69   2.0000      -0.389729       -10.6051
  70   2.0000      -0.373198       -10.1552
  71   2.0000      -0.361995        -9.8504
  72   2.0000      -0.360444        -9.8082
  73   2.0000      -0.291746        -7.9388
  74   2.0000      -0.283120        -7.7041
  75   2.0000      -0.282622        -7.6905
  76   0.0000      -0.024757        -0.6737
  77   0.0000       0.008913         0.2425
  78   0.0000       0.023302         0.6341
  79   0.0000       0.039050         1.0626
  80   0.0000       0.040294         1.0965

MULLIKEN ATOMIC CHARGES
-----------------------
   0 C :    0.172601
   1 C :   -0.209465
   2 C :    0.046483
   3 C :   -0.184615
   4 H :   -0.164795
   5 H :   -0.035043
   6 H :    0.002557
   7 H :   -0.133333
   8 N :    0.720261
   9 C :    0.527696
  10 C :    0.006407
  11 N :    0.869367
  12 C :    0.123632
  13 C :   -0.026499
  14 C :   -0.181946
  15 H :   -0.175050
  16 H :   -0.041333
  17 C :   -0.165278
  18 H :   -0.134287
  19 H :   -0.000869
  20 Pd:   -0.764844
  21 C :   -0.115223
  22 H :    0.077654
  23 H :    0.023362
  24 H :    0.112343
  25 C :    0.015862
  26 H :    0.076430
  27 H :   -0.032806
  28 H :    0.064165
  29 I :   -0.524440
  30 C :   -0.071013
  31 H :    0.031534
  32 H :    0.009637
  33 H :    0.080845
Sum of atomic charges:    0.0000000

LOEWDIN ATOMIC CHARGES
----------------------
   0 C :   -0.016730
   1 C :    0.061810
   2 C :    0.054799
   3 C :    0.085518
   4 H :    0.000717
   5 H :    0.009380
   6 H :    0.013641
   7 H :    0.001888
   8 N :    0.025789
   9 C :   -0.174162
  10 C :   -0.180819
  11 N :    0.015972
  12 C :   -0.018641
  13 C :    0.055480
  14 C :    0.062431
  15 H :    0.004264
  16 H :    0.009540
  17 C :    0.085757
  18 H :    0.001979
  19 H :    0.013640
  20 Pd:    0.679692
  21 C :    0.024306
  22 H :   -0.091803
  23 H :   -0.116058
  24 H :   -0.084475
  25 C :    0.017477
  26 H :   -0.100835
  27 H :   -0.106927
  28 H :   -0.084275
  29 I :   -0.053549
  30 C :    0.074448
  31 H :   -0.089846
  32 H :   -0.088938
  33 H :   -0.091470

  Mayer bond orders larger than 0.100000
B(  0-C ,  1-C ) :   1.1557 B(  0-C ,  4-H ) :   1.1721 B(  0-C ,  8-N ) :   1.5182
B(  0-C , 10-C ) :   0.1192 B(  0-C , 20-Pd) :  -0.1131 B(  1-C ,  2-C ) :   1.1257
B(  1-C ,  4-H ) :  -0.1215 B(  1-C ,  5-H ) :   1.1587 B(  1-C ,  8-N ) :  -0.2253
B(  1-C , 20-Pd) :   0.1246 B(  2-C ,  3-C ) :   1.0817 B(  2-C ,  6-H ) :   1.1015
B(  2-C ,  7-H ) :  -0.1524 B(  2-C ,  8-N ) :   0.1384 B(  3-C ,  7-H ) :   1.2686
B(  3-C ,  8-N ) :  -0.3571 B(  3-C ,  9-C ) :   0.8332 B(  3-C , 10-C ) :  -0.4684
B(  3-C , 20-Pd) :   0.1946 B(  4-H ,  8-N ) :  -0.1485 B(  7-H ,  9-C ) :  -0.1748
B(  8-N ,  9-C ) :   1.5094 B(  8-N , 10-C ) :   0.1555 B(  8-N , 11-N ) :  -0.1168
B(  8-N , 20-Pd) :   0.3489 B(  9-C , 10-C ) :   0.9072 B(  9-C , 11-N ) :   0.2675
B(  9-C , 12-C ) :   0.1339 B(  9-C , 17-C ) :  -0.5746 B(  9-C , 20-Pd) :  -0.2108
B( 10-C , 11-N ) :   1.4276 B( 10-C , 12-C ) :  -0.1422 B( 10-C , 17-C ) :   0.9628
B( 10-C , 18-H ) :  -0.1857 B( 10-C , 29-I ) :   0.1007 B( 11-N , 12-C ) :   1.4743
B( 11-N , 13-C ) :   0.1159 B( 11-N , 14-C ) :  -0.2793 B( 11-N , 15-H ) :  -0.1371
B( 11-N , 17-C ) :  -0.3985 B( 11-N , 20-Pd) :   0.2622 B( 12-C , 14-C ) :   1.1485
B( 12-C , 15-H ) :   1.2125 B( 13-C , 14-C ) :   1.1430 B( 13-C , 17-C ) :   1.0616
B( 13-C , 18-H ) :  -0.1536 B( 13-C , 19-H ) :   1.1072 B( 14-C , 15-H ) :  -0.1008
B( 14-C , 16-H ) :   1.1554 B( 14-C , 20-Pd) :   0.1109 B( 17-C , 18-H ) :   1.2605
B( 17-C , 20-Pd) :   0.2326 B( 20-Pd, 21-C ) :   0.7809 B( 20-Pd, 23-H ) :   0.1061
B( 20-Pd, 25-C ) :   0.7482 B( 20-Pd, 27-H ) :   0.1134 B( 20-Pd, 29-I ) :   0.8882
B( 20-Pd, 30-C ) :   0.6784 B( 20-Pd, 31-H ) :   0.1124 B( 20-Pd, 32-H ) :   0.1600
B( 21-C , 22-H ) :   0.9979 B( 21-C , 23-H ) :   1.0184 B( 21-C , 24-H ) :   0.9800
B( 21-C , 29-I ) :  -0.1252 B( 23-H , 29-I ) :   0.1332 B( 25-C , 26-H ) :   0.9956
B( 25-C , 27-H ) :   1.0285 B( 25-C , 28-H ) :   0.9982 B( 25-C , 29-I ) :  -0.1089
B( 29-I , 30-C ) :   0.1237 B( 30-C , 31-H ) :   1.0018 B( 30-C , 32-H ) :   1.0084
B( 30-C , 33-H ) :   1.0337

FINAL SINGLE POINT ENERGY     -1040.773540111280

DIPOLE MOMENT
-------------
                                X             Y             Z
Electronic contribution:    145.12207      -3.88290     -70.60056
Nuclear contribution   :   -148.61747       4.04670      71.83695
                        -----------------------------------------
Total Dipole Moment    :     -3.49540       0.16380       1.23639
                        -----------------------------------------
Magnitude (a.u.)       :      3.71125
Magnitude (Debye)      :      9.43324

Rotational constants in cm-1:     0.010327     0.008787     0.007812
Rotational constants in MHz :   309.600948   263.417504   234.204311

                             ****ORCA TERMINATED NORMALLY****
TOTAL RUN TIME: 0 days 0 hours 39 minutes 21 seconds 937 msec
