                         Program Version 4.2.0 -  RELEASE  -
|  1> #
|  2> # MOR22_pcy3 wB97X-V/Def2-TZVPPD
|  3> #
|  4> ! wb97x-v def2-tzvppd def2/jk grid4 nofinalgrid
|  5>
|  6> *xyz 0 1
|  7> P       -0.216171   -0.083077   -1.104749
|  8> C        0.505342    1.551445   -0.512411
|  9> C        0.372168    1.952615    0.967298
| 10> C        0.853698    3.397029    1.180070
| 11> C        2.300662    3.578910    0.704200
| 12> C        2.457928    3.151362   -0.760734
| 13> C        1.965268    1.712769   -0.974950
| 14> C        0.795470   -1.465851   -0.339173
| 15> C        1.194026   -1.376002    1.141683
| 16> C        1.830829   -2.691519    1.617818
| 17> C        3.044522   -3.062049    0.755351
| 18> C        2.669205   -3.127202   -0.731177
| 19> C        2.022807   -1.816580   -1.203888
| 20> C       -1.786787   -0.169467   -0.086099
| 21> C       -2.713096    0.996882   -0.481425
| 22> C       -4.042154    0.954203    0.285800
| 23> C       -4.758728   -0.385405    0.080261
| 24> C       -3.846658   -1.555269    0.467941
| 25> C       -2.516136   -1.508613   -0.298163
| 26> H       -0.086881    2.275758   -1.095374
| 27> H        0.969845    1.279400    1.591405
| 28> H       -0.665694    1.858440    1.303963
| 29> H        0.763179    3.670246    2.238833
| 30> H        0.199154    4.078898    0.617939
| 31> H        2.616561    4.621342    0.833145
| 32> H        2.964320    2.965719    1.331124
| 33> H        1.874427    3.827995   -1.401227
| 34> H        3.505668    3.240568   -1.073514
| 35> H        2.061196    1.427054   -2.029468
| 36> H        2.603163    1.029346   -0.398698
| 37> H        0.103060   -2.317100   -0.439871
| 38> H        1.082328   -3.494681    1.556078
| 39> H        0.325749   -1.129652    1.763601
| 40> H        1.922184   -0.564787    1.270256
| 41> H        2.123181   -2.608981    2.672179
| 42> H        3.467034   -4.019422    1.084011
| 43> H        3.828662   -2.303820    0.895790
| 44> H        3.555664   -3.350052   -1.337889
| 45> H        1.959466   -3.952268   -0.888607
| 46> H        1.724465   -1.892063   -2.255831
| 47> H        2.762591   -1.008464   -1.141586
| 48> H       -1.543753   -0.076214    0.982532
| 49> H       -2.216101    1.957671   -0.306445
| 50> H       -2.910289    0.936504   -1.561343
| 51> H       -3.843829    1.098520    1.357699
| 52> H       -4.683867    1.784681   -0.033466
| 53> H       -5.041866   -0.483893   -0.977569
| 54> H       -5.687452   -0.415984    0.663015
| 55> H       -4.350272   -2.511559    0.279900
| 56> H       -3.640750   -1.510603    1.547174
| 57> H       -1.884435   -2.344750    0.021762
| 58> H       -2.704341   -1.645246   -1.372687
| 59> *
| 60>
| 61> %maxcore 5000
| 62>
| 63> %pal
| 64> nprocs = 24
| 65> end
| 66>
| 67>
| 68>                          ****END OF INPUT****

CARTESIAN COORDINATES (ANGSTROEM)
---------------------------------
  P     -0.216171   -0.083077   -1.104749
  C      0.505342    1.551445   -0.512411
  C      0.372168    1.952615    0.967298
  C      0.853698    3.397029    1.180070
  C      2.300662    3.578910    0.704200
  C      2.457928    3.151362   -0.760734
  C      1.965268    1.712769   -0.974950
  C      0.795470   -1.465851   -0.339173
  C      1.194026   -1.376002    1.141683
  C      1.830829   -2.691519    1.617818
  C      3.044522   -3.062049    0.755351
  C      2.669205   -3.127202   -0.731177
  C      2.022807   -1.816580   -1.203888
  C     -1.786787   -0.169467   -0.086099
  C     -2.713096    0.996882   -0.481425
  C     -4.042154    0.954203    0.285800
  C     -4.758728   -0.385405    0.080261
  C     -3.846658   -1.555269    0.467941
  C     -2.516136   -1.508613   -0.298163
  H     -0.086881    2.275758   -1.095374
  H      0.969845    1.279400    1.591405
  H     -0.665694    1.858440    1.303963
  H      0.763179    3.670246    2.238833
  H      0.199154    4.078898    0.617939
  H      2.616561    4.621342    0.833145
  H      2.964320    2.965719    1.331124
  H      1.874427    3.827995   -1.401227
  H      3.505668    3.240568   -1.073514
  H      2.061196    1.427054   -2.029468
  H      2.603163    1.029346   -0.398698
  H      0.103060   -2.317100   -0.439871
  H      1.082328   -3.494681    1.556078
  H      0.325749   -1.129652    1.763601
  H      1.922184   -0.564787    1.270256
  H      2.123181   -2.608981    2.672179
  H      3.467034   -4.019422    1.084011
  H      3.828662   -2.303820    0.895790
  H      3.555664   -3.350052   -1.337889
  H      1.959466   -3.952268   -0.888607
  H      1.724465   -1.892063   -2.255831
  H      2.762591   -1.008464   -1.141586
  H     -1.543753   -0.076214    0.982532
  H     -2.216101    1.957671   -0.306445
  H     -2.910289    0.936504   -1.561343
  H     -3.843829    1.098520    1.357699
  H     -4.683867    1.784681   -0.033466
  H     -5.041866   -0.483893   -0.977569
  H     -5.687452   -0.415984    0.663015
  H     -4.350272   -2.511559    0.279900
  H     -3.640750   -1.510603    1.547174
  H     -1.884435   -2.344750    0.021762
  H     -2.704341   -1.645246   -1.372687

 Total Charge           Charge          ....    0
 Multiplicity           Mult            ....    1
 Number of Electrons    NEL             ....  156
 Basis Dimension        Dim             .... 1275

ORBITAL ENERGIES
----------------

  NO   OCC          E(Eh)            E(eV)
   0   2.0000     -77.046179     -2096.5331
   1   2.0000     -10.273122      -279.5459
   2   2.0000     -10.271970      -279.5145
   3   2.0000     -10.271688      -279.5068
   4   2.0000     -10.265854      -279.3481
   5   2.0000     -10.265686      -279.3435
   6   2.0000     -10.265064      -279.3266
   7   2.0000     -10.264857      -279.3210
   8   2.0000     -10.264275      -279.3051
   9   2.0000     -10.264066      -279.2994
  10   2.0000     -10.263631      -279.2876
  11   2.0000     -10.263620      -279.2873
  12   2.0000     -10.263573      -279.2860
  13   2.0000     -10.263553      -279.2855
  14   2.0000     -10.263395      -279.2812
  15   2.0000     -10.263161      -279.2748
  16   2.0000     -10.262423      -279.2547
  17   2.0000     -10.262262      -279.2504
  18   2.0000     -10.261897      -279.2404
  19   2.0000      -6.627523      -180.3441
  20   2.0000      -4.781274      -130.1051
  21   2.0000      -4.781125      -130.1010
  22   2.0000      -4.776141      -129.9654
  23   2.0000      -0.975293       -26.5391
  24   2.0000      -0.964913       -26.2566
  25   2.0000      -0.964474       -26.2447
  26   2.0000      -0.894824       -24.3494
  27   2.0000      -0.875238       -23.8164
  28   2.0000      -0.873502       -23.7692
  29   2.0000      -0.870821       -23.6962
  30   2.0000      -0.866278       -23.5726
  31   2.0000      -0.865105       -23.5407
  32   2.0000      -0.767514       -20.8851
  33   2.0000      -0.740056       -20.1379
  34   2.0000      -0.736981       -20.0543
  35   2.0000      -0.728853       -19.8331
  36   2.0000      -0.722095       -19.6492
  37   2.0000      -0.721504       -19.6331
  38   2.0000      -0.686766       -18.6879
  39   2.0000      -0.676228       -18.4011
  40   2.0000      -0.671053       -18.2603
  41   2.0000      -0.645929       -17.5766
  42   2.0000      -0.594028       -16.1643
  43   2.0000      -0.589911       -16.0523
  44   2.0000      -0.582514       -15.8510
  45   2.0000      -0.559336       -15.2203
  46   2.0000      -0.552752       -15.0412
  47   2.0000      -0.551877       -15.0173
  48   2.0000      -0.551464       -15.0061
  49   2.0000      -0.548963       -14.9380
  50   2.0000      -0.545820       -14.8525
  51   2.0000      -0.541714       -14.7408
  52   2.0000      -0.526734       -14.3332
  53   2.0000      -0.519914       -14.1476
  54   2.0000      -0.493311       -13.4237
  55   2.0000      -0.488673       -13.2975
  56   2.0000      -0.485459       -13.2100
  57   2.0000      -0.483593       -13.1592
  58   2.0000      -0.482579       -13.1317
  59   2.0000      -0.478296       -13.0151
  60   2.0000      -0.463818       -12.6211
  61   2.0000      -0.458759       -12.4835
  62   2.0000      -0.454522       -12.3682
  63   2.0000      -0.447934       -12.1889
  64   2.0000      -0.446730       -12.1561
  65   2.0000      -0.444371       -12.0920
  66   2.0000      -0.437964       -11.9176
  67   2.0000      -0.436957       -11.8902
  68   2.0000      -0.428843       -11.6694
  69   2.0000      -0.422959       -11.5093
  70   2.0000      -0.413501       -11.2519
  71   2.0000      -0.409642       -11.1469
  72   2.0000      -0.402415       -10.9503
  73   2.0000      -0.400493       -10.8980
  74   2.0000      -0.397637       -10.8203
  75   2.0000      -0.363123        -9.8811
  76   2.0000      -0.362825        -9.8730
  77   2.0000      -0.304648        -8.2899
  78   0.0000       0.055084         1.4989
  79   0.0000       0.061220         1.6659
  80   0.0000       0.063131         1.7179
  81   0.0000       0.066584         1.8118
  82   0.0000       0.075853         2.0641

MULLIKEN ATOMIC CHARGES
-----------------------
   0 P :   -1.081342
   1 C :    0.455546
   2 C :    0.202583
   3 C :   -0.381916
   4 C :   -0.076609
   5 C :   -0.282635
   6 C :   -0.239610
   7 C :    0.700028
   8 C :   -0.014163
   9 C :   -0.222106
  10 C :   -0.149297
  11 C :   -0.280313
  12 C :   -0.226022
  13 C :    0.342390
  14 C :   -0.146117
  15 C :   -0.109418
  16 C :   -0.284327
  17 C :   -0.031497
  18 C :   -0.165358
  19 H :    0.323451
  20 H :    0.027062
  21 H :   -0.236083
  22 H :    0.032113
  23 H :    0.119840
  24 H :    0.055337
  25 H :    0.088549
  26 H :    0.113532
  27 H :    0.028392
  28 H :    0.065447
  29 H :    0.047972
  30 H :    0.173652
  31 H :    0.094988
  32 H :   -0.141543
  33 H :    0.078488
  34 H :    0.027886
  35 H :    0.061163
  36 H :    0.088573
  37 H :    0.023562
  38 H :    0.116930
  39 H :    0.025849
  40 H :    0.056868
  41 H :    0.205817
  42 H :   -0.138844
  43 H :    0.254319
  44 H :    0.069272
  45 H :    0.050597
  46 H :    0.111854
  47 H :    0.042127
  48 H :    0.049084
  49 H :    0.074142
  50 H :   -0.199664
  51 H :    0.199448
Sum of atomic charges:   -0.0000000

LOEWDIN ATOMIC CHARGES
----------------------
   0 P :    1.135907
   1 C :   -0.330295
   2 C :   -0.031788
   3 C :   -0.013687
   4 C :   -0.022135
   5 C :   -0.017723
   6 C :   -0.054788
   7 C :   -0.331202
   8 C :   -0.034121
   9 C :   -0.014931
  10 C :   -0.022821
  11 C :   -0.019788
  12 C :   -0.053774
  13 C :   -0.351025
  14 C :   -0.054966
  15 C :   -0.017520
  16 C :   -0.025291
  17 C :   -0.018933
  18 C :   -0.049433
  19 H :   -0.009877
  20 H :    0.002526
  21 H :   -0.003372
  22 H :    0.013654
  23 H :    0.021309
  24 H :    0.011622
  25 H :    0.020490
  26 H :    0.020587
  27 H :    0.013054
  28 H :    0.012534
  29 H :    0.001990
  30 H :   -0.020685
  31 H :    0.020675
  32 H :    0.008667
  33 H :    0.003956
  34 H :    0.013272
  35 H :    0.011408
  36 H :    0.020332
  37 H :    0.012482
  38 H :    0.020002
  39 H :    0.006740
  40 H :    0.001135
  41 H :   -0.009574
  42 H :   -0.004860
  43 H :    0.021474
  44 H :    0.021088
  45 H :    0.013158
  46 H :    0.020436
  47 H :    0.011600
  48 H :    0.012711
  49 H :    0.021011
  50 H :   -0.003024
  51 H :    0.021795

  Mayer bond orders larger than 0.100000
B(  0-P ,  1-C ) :   0.7529 B(  0-P ,  6-C ) :   0.2722 B(  0-P ,  7-C ) :   0.6212
B(  0-P ,  8-C ) :   0.2055 B(  0-P , 13-C ) :   0.6971 B(  0-P , 14-C ) :   0.2207
B(  0-P , 39-H ) :  -0.1146 B(  1-C ,  2-C ) :   1.0332 B(  1-C ,  3-C ) :   0.2842
B(  1-C ,  5-C ) :   0.3407 B(  1-C ,  6-C ) :   1.2291 B(  1-C ,  7-C ) :   0.1855
B(  1-C , 19-H ) :   0.8666 B(  2-C ,  3-C ) :   1.0241 B(  2-C ,  6-C ) :   0.1529
B(  2-C , 19-H ) :  -0.1057 B(  2-C , 20-H ) :   0.9520 B(  2-C , 21-H ) :   0.9938
B(  3-C ,  4-C ) :   1.0147 B(  3-C ,  5-C ) :   0.2025 B(  3-C , 21-H ) :   0.1246
B(  3-C , 22-H ) :   0.9335 B(  3-C , 23-H ) :   0.9726 B(  4-C ,  5-C ) :   1.0204
B(  4-C , 24-H ) :   0.9960 B(  4-C , 25-H ) :   0.9763 B(  5-C ,  6-C ) :   0.9656
B(  5-C , 26-H ) :   0.9794 B(  5-C , 27-H ) :   0.9490 B(  6-C , 28-H ) :   0.9011
B(  6-C , 29-H ) :   1.0418 B(  7-C ,  8-C ) :   1.2003 B(  7-C ,  9-C ) :   0.2616
B(  7-C , 11-C ) :   0.2588 B(  7-C , 12-C ) :   1.1468 B(  7-C , 13-C ) :   0.1711
B(  7-C , 30-H ) :   0.8620 B(  8-C ,  9-C ) :   0.9746 B(  8-C , 10-C ) :   0.1165
B(  8-C , 32-H ) :   0.9950 B(  8-C , 33-H ) :   0.9745 B(  9-C , 10-C ) :   1.0235
B(  9-C , 11-C ) :   0.1707 B(  9-C , 31-H ) :   0.9663 B(  9-C , 34-H ) :   0.9389
B( 10-C , 11-C ) :   1.0330 B( 10-C , 35-H ) :   0.9999 B( 10-C , 36-H ) :   0.9860
B( 11-C , 12-C ) :   0.9162 B( 11-C , 37-H ) :   0.9794 B( 11-C , 38-H ) :   0.9797
B( 12-C , 39-H ) :   0.9832 B( 12-C , 40-H ) :   1.0146 B( 13-C , 14-C ) :   1.1462
B( 13-C , 15-C ) :   0.2766 B( 13-C , 17-C ) :   0.1937 B( 13-C , 18-C ) :   1.1272
B( 13-C , 41-H ) :   0.9412 B( 14-C , 15-C ) :   0.8450 B( 14-C , 16-C ) :   0.2004
B( 14-C , 41-H ) :  -0.1356 B( 14-C , 42-H ) :   1.0192 B( 14-C , 43-H ) :   0.8695
B( 15-C , 16-C ) :   1.0206 B( 15-C , 42-H ) :   0.1271 B( 15-C , 44-H ) :   0.9772
B( 15-C , 45-H ) :   0.9986 B( 16-C , 17-C ) :   0.9981 B( 16-C , 18-C ) :   0.2196
B( 16-C , 46-H ) :   0.9858 B( 16-C , 47-H ) :   0.9999 B( 17-C , 18-C ) :   0.8224
B( 17-C , 48-H ) :   0.9956 B( 17-C , 49-H ) :   0.9587 B( 18-C , 41-H ) :  -0.1260
B( 18-C , 50-H ) :   1.0308 B( 18-C , 51-H ) :   0.8727

FINAL SINGLE POINT ENERGY     -1047.231135983015

DIPOLE MOMENT
-------------
                                X             Y             Z
Electronic contribution:     -1.36757      -0.48100      -6.51790
Nuclear contribution   :      1.41899       0.52417       7.05083
                        -----------------------------------------
Total Dipole Moment    :      0.05142       0.04316       0.53293
                        -----------------------------------------
Magnitude (a.u.)       :      0.53714
Magnitude (Debye)      :      1.36531

Rotational constants in cm-1:     0.011612     0.009073     0.005947
Rotational constants in MHz :   348.132374   272.016111   178.294122

                             ****ORCA TERMINATED NORMALLY****
TOTAL RUN TIME: 0 days 0 hours 37 minutes 51 seconds 521 msec
