                         Program Version 4.2.0 -  RELEASE  -
|  1> #
|  2> # MOR28_pr09 wB97X-V/Def2-TZVPPD
|  3> #
|  4> ! wb97x-v def2-tzvppd def2/jk grid4 nofinalgrid
|  5>
|  6> *xyz 0 1
|  7> Rh       0.002553    0.015324   -0.037445
|  8> P       -2.290286    0.102034   -0.002141
|  9> P        2.295185    0.104741   -0.029108
| 10> H       -0.000447    1.293328    0.830281
| 11> H        0.001130    1.304527   -0.889045
| 12> Cl       0.007749   -2.380443   -0.037879
| 13> C        3.048741    1.714400   -0.468454
| 14> C        3.042509   -0.273930    1.598336
| 15> C        3.097153   -1.069215   -1.172055
| 16> C       -3.110022   -0.330980   -1.580554
| 17> C       -3.050128   -1.025999    1.213911
| 18> C       -3.019556    1.731005    0.405513
| 19> C        4.221249    1.798414   -1.230361
| 20> C        4.789108    3.041134   -1.513476
| 21> C        4.197347    4.208872   -1.032572
| 22> C        3.028536    4.131819   -0.272310
| 23> C        2.452968    2.893237    0.001453
| 24> H        4.686057    0.892043   -1.605584
| 25> H        5.694526    3.094809   -2.111614
| 26> H        4.640059    5.175809   -1.254830
| 27> H        2.559280    5.038271    0.099833
| 28> H        1.532532    2.831516    0.574445
| 29> C        2.492740   -1.274577   -2.419700
| 30> C        3.069210   -2.141848   -3.343202
| 31> C        4.245283   -2.823200   -3.021963
| 32> C        4.842886   -2.633499   -1.775820
| 33> C        4.272633   -1.757382   -0.851682
| 34> H        1.559916   -0.765736   -2.648777
| 35> H        2.592837   -2.299617   -4.306681
| 36> H        4.688326   -3.509606   -3.738122
| 37> H        5.750981   -3.171899   -1.518950
| 38> H        4.733770   -1.615306    0.121218
| 39> C        2.573432   -1.401325    2.291237
| 40> C        3.112349   -1.729837    3.532773
| 41> C        4.110733   -0.934394    4.100320
| 42> C        4.573407    0.190471    3.418246
| 43> C        4.043987    0.520908    2.169837
| 44> H        1.789551   -2.010529    1.847481
| 45> H        2.746524   -2.605505    4.061892
| 46> H        4.523765   -1.189174    5.072491
| 47> H        5.347947    0.814312    3.855909
| 48> H        4.408962    1.396682    1.642408
| 49> C       -4.114004    1.861395    1.269146
| 50> C       -4.661457    3.119187    1.526531
| 51> C       -4.128475    4.254505    0.917253
| 52> C       -3.037090    4.130954    0.054341
| 53> C       -2.480194    2.878757   -0.192845
| 54> H       -4.534614    0.980084    1.743054
| 55> H       -5.505661    3.209295    2.204432
| 56> H       -4.556024    5.232793    1.118339
| 57> H       -2.613755    5.012384   -0.419158
| 58> H       -1.618255    2.782567   -0.846864
| 59> C       -4.156822    0.429958   -2.116482
| 60> C       -4.751801    0.052668   -3.321119
| 61> C       -4.309469   -1.085441   -3.994829
| 62> C       -3.265632   -1.846455   -3.463206
| 63> C       -2.661736   -1.471384   -2.265369
| 64> H       -4.506373    1.315520   -1.594998
| 65> H       -5.561640    0.650007   -3.730969
| 66> H       -4.773990   -1.377169   -4.932751
| 67> H       -2.915705   -2.732129   -3.986302
| 68> H       -1.843939   -2.054854   -1.849211
| 69> C       -2.377196   -1.225504    2.426817
| 70> C       -2.923708   -2.054207    3.402951
| 71> C       -4.138807   -2.701607    3.169380
| 72> C       -4.805427   -2.517892    1.957599
| 73> C       -4.264583   -1.681339    0.980942
| 74> H       -1.416572   -0.742639    2.587014
| 75> H       -2.394478   -2.207926    4.339105
| 76> H       -4.559549   -3.357196    3.926721
| 77> H       -5.744700   -3.030292    1.768738
| 78> H       -4.779554   -1.544060    0.034665
| 79> *
| 80>
| 81> %maxcore 5000
| 82>
| 83> %pal
| 84> nprocs = 24
| 85> end
| 86>
| 87>
| 88>                          ****END OF INPUT****

CARTESIAN COORDINATES (ANGSTROEM)
---------------------------------
  Rh     0.002553    0.015324   -0.037445
  P     -2.290286    0.102034   -0.002141
  P      2.295185    0.104741   -0.029108
  H     -0.000447    1.293328    0.830281
  H      0.001130    1.304527   -0.889045
  Cl     0.007749   -2.380443   -0.037879
  C      3.048741    1.714400   -0.468454
  C      3.042509   -0.273930    1.598336
  C      3.097153   -1.069215   -1.172055
  C     -3.110022   -0.330980   -1.580554
  C     -3.050128   -1.025999    1.213911
  C     -3.019556    1.731005    0.405513
  C      4.221249    1.798414   -1.230361
  C      4.789108    3.041134   -1.513476
  C      4.197347    4.208872   -1.032572
  C      3.028536    4.131819   -0.272310
  C      2.452968    2.893237    0.001453
  H      4.686057    0.892043   -1.605584
  H      5.694526    3.094809   -2.111614
  H      4.640059    5.175809   -1.254830
  H      2.559280    5.038271    0.099833
  H      1.532532    2.831516    0.574445
  C      2.492740   -1.274577   -2.419700
  C      3.069210   -2.141848   -3.343202
  C      4.245283   -2.823200   -3.021963
  C      4.842886   -2.633499   -1.775820
  C      4.272633   -1.757382   -0.851682
  H      1.559916   -0.765736   -2.648777
  H      2.592837   -2.299617   -4.306681
  H      4.688326   -3.509606   -3.738122
  H      5.750981   -3.171899   -1.518950
  H      4.733770   -1.615306    0.121218
  C      2.573432   -1.401325    2.291237
  C      3.112349   -1.729837    3.532773
  C      4.110733   -0.934394    4.100320
  C      4.573407    0.190471    3.418246
  C      4.043987    0.520908    2.169837
  H      1.789551   -2.010529    1.847481
  H      2.746524   -2.605505    4.061892
  H      4.523765   -1.189174    5.072491
  H      5.347947    0.814312    3.855909
  H      4.408962    1.396682    1.642408
  C     -4.114004    1.861395    1.269146
  C     -4.661457    3.119187    1.526531
  C     -4.128475    4.254505    0.917253
  C     -3.037090    4.130954    0.054341
  C     -2.480194    2.878757   -0.192845
  H     -4.534614    0.980084    1.743054
  H     -5.505661    3.209295    2.204432
  H     -4.556024    5.232793    1.118339
  H     -2.613755    5.012384   -0.419158
  H     -1.618255    2.782567   -0.846864
  C     -4.156822    0.429958   -2.116482
  C     -4.751801    0.052668   -3.321119
  C     -4.309469   -1.085441   -3.994829
  C     -3.265632   -1.846455   -3.463206
  C     -2.661736   -1.471384   -2.265369
  H     -4.506373    1.315520   -1.594998
  H     -5.561640    0.650007   -3.730969
  H     -4.773990   -1.377169   -4.932751
  H     -2.915705   -2.732129   -3.986302
  H     -1.843939   -2.054854   -1.849211
  C     -2.377196   -1.225504    2.426817
  C     -2.923708   -2.054207    3.402951
  C     -4.138807   -2.701607    3.169380
  C     -4.805427   -2.517892    1.957599
  C     -4.264583   -1.681339    0.980942
  H     -1.416572   -0.742639    2.587014
  H     -2.394478   -2.207926    4.339105
  H     -4.559549   -3.357196    3.926721
  H     -5.744700   -3.030292    1.768738
  H     -4.779554   -1.544060    0.034665

 Total Charge           Charge          ....    0
 Multiplicity           Mult            ....    1
 Number of Electrons    NEL             ....  312
 Basis Dimension        Dim             .... 2079

ORBITAL ENERGIES
----------------

  NO   OCC          E(Eh)            E(eV)
   0   2.0000    -101.424223     -2759.8934
   1   2.0000     -77.103914     -2098.1042
   2   2.0000     -77.103870     -2098.1030
   3   2.0000     -10.292850      -280.0827
   4   2.0000     -10.292700      -280.0786
   5   2.0000     -10.289459      -279.9904
   6   2.0000     -10.289209      -279.9836
   7   2.0000     -10.287865      -279.9470
   8   2.0000     -10.287635      -279.9408
   9   2.0000     -10.287213      -279.9293
  10   2.0000     -10.286942      -279.9219
  11   2.0000     -10.286754      -279.9168
  12   2.0000     -10.286570      -279.9118
  13   2.0000     -10.286511      -279.9102
  14   2.0000     -10.286383      -279.9067
  15   2.0000     -10.285417      -279.8804
  16   2.0000     -10.285375      -279.8793
  17   2.0000     -10.285313      -279.8776
  18   2.0000     -10.285179      -279.8740
  19   2.0000     -10.283679      -279.8331
  20   2.0000     -10.283498      -279.8282
  21   2.0000     -10.282731      -279.8073
  22   2.0000     -10.282521      -279.8016
  23   2.0000     -10.282208      -279.7931
  24   2.0000     -10.281871      -279.7839
  25   2.0000     -10.281639      -279.7776
  26   2.0000     -10.281199      -279.7656
  27   2.0000     -10.280934      -279.7584
  28   2.0000     -10.280784      -279.7544
  29   2.0000     -10.280725      -279.7527
  30   2.0000     -10.280572      -279.7486
  31   2.0000     -10.279334      -279.7149
  32   2.0000     -10.279007      -279.7060
  33   2.0000     -10.278795      -279.7002
  34   2.0000     -10.278412      -279.6898
  35   2.0000     -10.278303      -279.6869
  36   2.0000     -10.278000      -279.6786
  37   2.0000     -10.277326      -279.6603
  38   2.0000     -10.276936      -279.6496
  39   2.0000      -9.464478      -257.5415
  40   2.0000      -7.215284      -196.3379
  41   2.0000      -7.213162      -196.2801
  42   2.0000      -7.211785      -196.2426
  43   2.0000      -6.683444      -181.8658
  44   2.0000      -6.683390      -181.8643
  45   2.0000      -4.837161      -131.6259
  46   2.0000      -4.837112      -131.6245
  47   2.0000      -4.836988      -131.6211
  48   2.0000      -4.836935      -131.6197
  49   2.0000      -4.833373      -131.5228
  50   2.0000      -4.833316      -131.5212
  51   2.0000      -3.346802       -91.0711
  52   2.0000      -2.113243       -57.5043
  53   2.0000      -2.106781       -57.3284
  54   2.0000      -2.093694       -56.9723
  55   2.0000      -1.007368       -27.4119
  56   2.0000      -1.007174       -27.4066
  57   2.0000      -0.997353       -27.1393
  58   2.0000      -0.997273       -27.1372
  59   2.0000      -0.994305       -27.0564
  60   2.0000      -0.994244       -27.0548
  61   2.0000      -0.918221       -24.9861
  62   2.0000      -0.917216       -24.9587
  63   2.0000      -0.888950       -24.1896
  64   2.0000      -0.888774       -24.1848
  65   2.0000      -0.885289       -24.0899
  66   2.0000      -0.884959       -24.0810
  67   2.0000      -0.883164       -24.0321
  68   2.0000      -0.882846       -24.0235
  69   2.0000      -0.880143       -23.9499
  70   2.0000      -0.880024       -23.9467
  71   2.0000      -0.878301       -23.8998
  72   2.0000      -0.878229       -23.8978
  73   2.0000      -0.849006       -23.1026
  74   2.0000      -0.790942       -21.5226
  75   2.0000      -0.788123       -21.4459
  76   2.0000      -0.739948       -20.1350
  77   2.0000      -0.739509       -20.1231
  78   2.0000      -0.736025       -20.0283
  79   2.0000      -0.735541       -20.0151
  80   2.0000      -0.733910       -19.9707
  81   2.0000      -0.733575       -19.9616
  82   2.0000      -0.724151       -19.7052
  83   2.0000      -0.724117       -19.7042
  84   2.0000      -0.721797       -19.6411
  85   2.0000      -0.721724       -19.6391
  86   2.0000      -0.688091       -18.7239
  87   2.0000      -0.685305       -18.6481
  88   2.0000      -0.645229       -17.5576
  89   2.0000      -0.644799       -17.5459
  90   2.0000      -0.641071       -17.4444
  91   2.0000      -0.640798       -17.4370
  92   2.0000      -0.620748       -16.8914
  93   2.0000      -0.617548       -16.8043
  94   2.0000      -0.578072       -15.7301
  95   2.0000      -0.577469       -15.7137
  96   2.0000      -0.577362       -15.7108
  97   2.0000      -0.575503       -15.6602
  98   2.0000      -0.573352       -15.6017
  99   2.0000      -0.571939       -15.5633
 100   2.0000      -0.565423       -15.3859
 101   2.0000      -0.565190       -15.3796
 102   2.0000      -0.564429       -15.3589
 103   2.0000      -0.564198       -15.3526
 104   2.0000      -0.558758       -15.2046
 105   2.0000      -0.557183       -15.1617
 106   2.0000      -0.541854       -14.7446
 107   2.0000      -0.539841       -14.6898
 108   2.0000      -0.535681       -14.5766
 109   2.0000      -0.535364       -14.5680
 110   2.0000      -0.534444       -14.5430
 111   2.0000      -0.533786       -14.5251
 112   2.0000      -0.528618       -14.3844
 113   2.0000      -0.528441       -14.3796
 114   2.0000      -0.523592       -14.2476
 115   2.0000      -0.523159       -14.2359
 116   2.0000      -0.503424       -13.6989
 117   2.0000      -0.494262       -13.4496
 118   2.0000      -0.490083       -13.3358
 119   2.0000      -0.488686       -13.2978
 120   2.0000      -0.487328       -13.2609
 121   2.0000      -0.487259       -13.2590
 122   2.0000      -0.483432       -13.1549
 123   2.0000      -0.477328       -12.9887
 124   2.0000      -0.475846       -12.9484
 125   2.0000      -0.458773       -12.4838
 126   2.0000      -0.456163       -12.4128
 127   2.0000      -0.452911       -12.3243
 128   2.0000      -0.452727       -12.3193
 129   2.0000      -0.450346       -12.2545
 130   2.0000      -0.449979       -12.2446
 131   2.0000      -0.442823       -12.0498
 132   2.0000      -0.441763       -12.0210
 133   2.0000      -0.438812       -11.9407
 134   2.0000      -0.435232       -11.8433
 135   2.0000      -0.432271       -11.7627
 136   2.0000      -0.423367       -11.5204
 137   2.0000      -0.398529       -10.8445
 138   2.0000      -0.388548       -10.5729
 139   2.0000      -0.385307       -10.4847
 140   2.0000      -0.364523        -9.9192
 141   2.0000      -0.363802        -9.8996
 142   2.0000      -0.359759        -9.7895
 143   2.0000      -0.358125        -9.7451
 144   2.0000      -0.357700        -9.7335
 145   2.0000      -0.355918        -9.6850
 146   2.0000      -0.353472        -9.6185
 147   2.0000      -0.351372        -9.5613
 148   2.0000      -0.348551        -9.4845
 149   2.0000      -0.347859        -9.4657
 150   2.0000      -0.346060        -9.4168
 151   2.0000      -0.344755        -9.3813
 152   2.0000      -0.342474        -9.3192
 153   2.0000      -0.328023        -8.9260
 154   2.0000      -0.323770        -8.8102
 155   2.0000      -0.308859        -8.4045
 156   0.0000       0.020934         0.5696
 157   0.0000       0.033140         0.9018
 158   0.0000       0.040819         1.1108
 159   0.0000       0.041759         1.1363
 160   0.0000       0.043430         1.1818

MULLIKEN ATOMIC CHARGES
-----------------------
   0 Rh:   -1.455670
   1 P :    1.712206
   2 P :    1.743646
   3 H :   -0.021471
   4 H :   -0.004838
   5 Cl:   -0.762900
   6 C :   -0.040848
   7 C :    0.160475
   8 C :    0.116619
   9 C :    0.128170
  10 C :    0.090471
  11 C :    0.023006
  12 C :    0.406277
  13 C :   -0.297538
  14 C :    0.094126
  15 C :   -0.370404
  16 C :    0.145133
  17 H :   -0.014091
  18 H :   -0.060207
  19 H :   -0.026740
  20 H :   -0.048730
  21 H :   -0.065295
  22 C :    0.134759
  23 C :   -0.321925
  24 C :    0.083380
  25 C :   -0.246889
  26 C :    0.284343
  27 H :   -0.158995
  28 H :   -0.067798
  29 H :   -0.029768
  30 H :   -0.067470
  31 H :   -0.018231
  32 C :    0.131797
  33 C :   -0.383858
  34 C :    0.081022
  35 C :   -0.265235
  36 C :    0.399670
  37 H :   -0.014722
  38 H :   -0.049660
  39 H :   -0.029077
  40 H :   -0.058163
  41 H :   -0.024692
  42 C :    0.391684
  43 C :   -0.298190
  44 C :    0.093575
  45 C :   -0.385012
  46 C :    0.207779
  47 H :   -0.016242
  48 H :   -0.060389
  49 H :   -0.027913
  50 H :   -0.049881
  51 H :   -0.110206
  52 C :    0.411683
  53 C :   -0.265956
  54 C :    0.097243
  55 C :   -0.334877
  56 C :    0.071595
  57 H :   -0.013101
  58 H :   -0.059145
  59 H :   -0.025334
  60 H :   -0.051977
  61 H :    0.000982
  62 C :    0.144822
  63 C :   -0.331788
  64 C :    0.082947
  65 C :   -0.273034
  66 C :    0.281909
  67 H :   -0.127551
  68 H :   -0.065097
  69 H :   -0.030005
  70 H :   -0.066437
  71 H :   -0.021965
Sum of atomic charges:   -0.0000000

LOEWDIN ATOMIC CHARGES
----------------------
   0 Rh:    0.228899
   1 P :    0.952625
   2 P :    0.952030
   3 H :   -0.104642
   4 H :   -0.107230
   5 Cl:   -0.063757
   6 C :   -0.314499
   7 C :   -0.305859
   8 C :   -0.338984
   9 C :   -0.305237
  10 C :   -0.336040
  11 C :   -0.316201
  12 C :    0.009299
  13 C :    0.019521
  14 C :    0.014013
  15 C :    0.018079
  16 C :   -0.022406
  17 H :   -0.001814
  18 H :    0.003158
  19 H :    0.001690
  20 H :    0.002778
  21 H :   -0.027513
  22 C :   -0.026294
  23 C :    0.021513
  24 C :    0.016509
  25 C :    0.019675
  26 C :    0.004011
  27 H :   -0.008130
  28 H :    0.003520
  29 H :    0.001402
  30 H :    0.002398
  31 H :    0.003254
  32 C :   -0.015300
  33 C :    0.020581
  34 C :    0.012819
  35 C :    0.015823
  36 C :    0.007325
  37 H :   -0.069507
  38 H :    0.004119
  39 H :    0.001104
  40 H :    0.001903
  41 H :   -0.003663
  42 C :    0.010865
  43 C :    0.019535
  44 C :    0.013732
  45 C :    0.017794
  46 C :   -0.024290
  47 H :   -0.002553
  48 H :    0.003076
  49 H :    0.001558
  50 H :    0.002761
  51 H :   -0.023212
  52 C :    0.005174
  53 C :    0.015668
  54 C :    0.012922
  55 C :    0.020992
  56 C :   -0.012941
  57 H :   -0.003386
  58 H :    0.001884
  59 H :    0.001105
  60 H :    0.004119
  61 H :   -0.071678
  62 C :   -0.025931
  63 C :    0.021711
  64 C :    0.016526
  65 C :    0.019627
  66 C :    0.004493
  67 H :   -0.011347
  68 H :    0.003528
  69 H :    0.001454
  70 H :    0.002412
  71 H :    0.003434

  Mayer bond orders larger than 0.100000
B(  0-Rh,  1-P ) :   0.3026 B(  0-Rh,  2-P ) :   0.2477 B(  0-Rh,  3-H ) :   1.0362
B(  0-Rh,  4-H ) :   1.0270 B(  0-Rh,  5-Cl) :   0.8399 B(  0-Rh,  6-C ) :   0.1043
B(  0-Rh,  8-C ) :   0.1245 B(  0-Rh,  9-C ) :   0.1115 B(  0-Rh, 10-C ) :   0.1378
B(  0-Rh, 16-C ) :   0.1719 B(  0-Rh, 22-C ) :   0.1410 B(  0-Rh, 46-C ) :   0.1602
B(  0-Rh, 62-C ) :   0.1621 B(  1-P ,  2-P ) :   0.3145 B(  1-P ,  3-H ) :  -0.1414
B(  1-P ,  5-Cl) :  -0.2116 B(  1-P ,  9-C ) :   0.5956 B(  1-P , 10-C ) :   0.6559
B(  1-P , 11-C ) :   0.5188 B(  2-P ,  4-H ) :  -0.1663 B(  2-P ,  5-Cl) :  -0.2266
B(  2-P ,  6-C ) :   0.5915 B(  2-P ,  7-C ) :   0.5825 B(  2-P ,  8-C ) :   0.6219
B(  5-Cl,  7-C ) :  -0.1065 B(  5-Cl, 22-C ) :   0.1321 B(  5-Cl, 62-C ) :   0.1191
B(  6-C ,  7-C ) :   0.4155 B(  6-C ,  8-C ) :   0.3717 B(  6-C , 12-C ) :   0.9992
B(  6-C , 16-C ) :   1.0522 B(  6-C , 21-H ) :  -0.1265 B(  6-C , 32-C ) :  -0.1086
B(  7-C ,  8-C ) :   0.4470 B(  7-C , 26-C ) :   0.1134 B(  7-C , 32-C ) :   1.0673
B(  7-C , 33-C ) :  -0.1303 B(  7-C , 36-C ) :   0.7414 B(  7-C , 37-H ) :  -0.1131
B(  8-C , 16-C ) :  -0.1498 B(  8-C , 22-C ) :   1.1573 B(  8-C , 26-C ) :   0.8996
B(  9-C , 10-C ) :   0.4632 B(  9-C , 11-C ) :   0.4362 B(  9-C , 52-C ) :   0.7433
B(  9-C , 53-C ) :  -0.1092 B(  9-C , 55-C ) :  -0.1101 B(  9-C , 56-C ) :   1.0618
B(  9-C , 61-H ) :  -0.1134 B( 10-C , 11-C ) :   0.3650 B( 10-C , 46-C ) :  -0.1526
B( 10-C , 62-C ) :   1.1843 B( 10-C , 66-C ) :   0.8840 B( 11-C , 42-C ) :   0.9359
B( 11-C , 46-C ) :   1.0379 B( 11-C , 51-H ) :  -0.1301 B( 11-C , 56-C ) :  -0.1165
B( 12-C , 13-C ) :   1.1073 B( 12-C , 17-H ) :   1.0246 B( 13-C , 14-C ) :   1.1146
B( 13-C , 15-C ) :   0.1165 B( 13-C , 17-H ) :  -0.1326 B( 13-C , 18-H ) :   1.1868
B( 13-C , 19-H ) :  -0.1094 B( 14-C , 15-C ) :   1.1156 B( 14-C , 18-H ) :  -0.1101
B( 14-C , 19-H ) :   1.1475 B( 14-C , 20-H ) :  -0.1022 B( 15-C , 16-C ) :   1.1752
B( 15-C , 19-H ) :  -0.1005 B( 15-C , 20-H ) :   1.1782 B( 16-C , 21-H ) :   0.9998
B( 22-C , 23-C ) :   1.1421 B( 22-C , 25-C ) :   0.1273 B( 22-C , 27-H ) :   1.0501
B( 23-C , 24-C ) :   1.1371 B( 23-C , 27-H ) :  -0.1372 B( 23-C , 28-H ) :   1.1812
B( 24-C , 25-C ) :   1.1673 B( 24-C , 28-H ) :  -0.1106 B( 24-C , 29-H ) :   1.1405
B( 24-C , 30-H ) :  -0.1094 B( 25-C , 26-C ) :   1.1005 B( 25-C , 30-H ) :   1.1821
B( 25-C , 31-H ) :  -0.1274 B( 26-C , 31-H ) :   1.0656 B( 26-C , 36-C ) :  -0.1812
B( 32-C , 33-C ) :   1.2364 B( 32-C , 35-C ) :   0.1523 B( 32-C , 37-H ) :   1.0220
B( 33-C , 34-C ) :   1.0847 B( 33-C , 37-H ) :  -0.1312 B( 33-C , 38-H ) :   1.2018
B( 34-C , 35-C ) :   1.1265 B( 34-C , 38-H ) :  -0.1136 B( 34-C , 39-H ) :   1.1515
B( 34-C , 40-H ) :  -0.1109 B( 35-C , 36-C ) :   1.1508 B( 35-C , 39-H ) :  -0.1095
B( 35-C , 40-H ) :   1.1844 B( 35-C , 41-H ) :  -0.1461 B( 36-C , 41-H ) :   1.0372
B( 42-C , 43-C ) :   1.1256 B( 42-C , 47-H ) :   1.0328 B( 43-C , 44-C ) :   1.1275
B( 43-C , 45-C ) :   0.1163 B( 43-C , 47-H ) :  -0.1334 B( 43-C , 48-H ) :   1.1886
B( 43-C , 49-H ) :  -0.1107 B( 44-C , 45-C ) :   1.1246 B( 44-C , 48-H ) :  -0.1099
B( 44-C , 49-H ) :   1.1463 B( 44-C , 50-H ) :  -0.1008 B( 45-C , 46-C ) :   1.1601
B( 45-C , 50-H ) :   1.1805 B( 45-C , 51-H ) :  -0.1049 B( 46-C , 51-H ) :   1.0096
B( 46-C , 66-C ) :   0.1026 B( 52-C , 53-C ) :   1.1469 B( 52-C , 57-H ) :   1.0206
B( 52-C , 66-C ) :  -0.1712 B( 53-C , 54-C ) :   1.1402 B( 53-C , 56-C ) :   0.1598
B( 53-C , 57-H ) :  -0.1440 B( 53-C , 58-H ) :   1.1842 B( 53-C , 59-H ) :  -0.1033
B( 54-C , 55-C ) :   1.0642 B( 54-C , 58-H ) :  -0.1095 B( 54-C , 59-H ) :   1.1469
B( 54-C , 60-H ) :  -0.1218 B( 55-C , 56-C ) :   1.2620 B( 55-C , 59-H ) :  -0.1019
B( 55-C , 60-H ) :   1.1987 B( 55-C , 61-H ) :  -0.1415 B( 56-C , 61-H ) :   1.0087
B( 62-C , 63-C ) :   1.1451 B( 62-C , 65-C ) :   0.1260 B( 62-C , 67-H ) :   1.0361
B( 63-C , 64-C ) :   1.1246 B( 63-C , 67-H ) :  -0.1343 B( 63-C , 68-H ) :   1.1886
B( 63-C , 69-H ) :  -0.1023 B( 64-C , 65-C ) :   1.1594 B( 64-C , 68-H ) :  -0.1085
B( 64-C , 69-H ) :   1.1439 B( 64-C , 70-H ) :  -0.1135 B( 65-C , 66-C ) :   1.1021
B( 65-C , 70-H ) :   1.1832 B( 65-C , 71-H ) :  -0.1281 B( 66-C , 71-H ) :   1.0649

FINAL SINGLE POINT ENERGY     -2644.655025011777

DIPOLE MOMENT
-------------
                                X             Y             Z
Electronic contribution:      0.23793      -6.56263      -2.79173
Nuclear contribution   :     -0.23889       7.84350       2.82850
                        -----------------------------------------
Total Dipole Moment    :     -0.00096       1.28088       0.03677
                        -----------------------------------------
Magnitude (a.u.)       :      1.28140
Magnitude (Debye)      :      3.25707

Rotational constants in cm-1:     0.003375     0.001837     0.001796
Rotational constants in MHz :   101.191459    55.075356    53.852243

                             ****ORCA TERMINATED NORMALLY****
TOTAL RUN TIME: 0 days 3 hours 16 minutes 8 seconds 990 msec
