                         Program Version 4.2.0 -  RELEASE  -
|  1> # input to generate an atomic fitting density for Ru
|  2> # this file is use internally by ORCA
|  3> #
|  4> # atomic ground state (S=5): 1s2 2s2 2p6 3s2 3p6 4s2 3d10 4p6 5s2 4d6
|  5> #
|  6> ! RHF AllowRHF def2-SVP def2/J  NoMulliken NoLoewdin NoMayer NoPrintMOs
|  7>
|  8> %output print[p_atomdensfit] 2 end
|  9>
| 10> %scf
| 11>   guess hcore
| 12>   maxiter 1000
| 13>   maxdisk 500000
| 14>   SCFMode Conventional
| 15>   lshift 1.000000
| 16>   hftyp rohf
| 17>   rohf_case sahf
| 18>   rohf_numop   2
| 19>   rohf_norb[1] 5
| 20>   rohf_nel[1]  6
| 21> end
| 22>
| 23> %basis
| 24>   NewECP 44
| 25>     N_core 28
| 26>     lmax f
| 27>     s 4
| 28>       1      11.1052693000    209.8229712000  2
| 29>       2       5.4147454000     30.6547264000  2
| 30>       3      11.3600000000     28.3406163000  2
| 31>       4       5.6800000000      4.9446292000  2
| 32>     p 4
| 33>       1       9.7712707000    146.3361823000  2
| 34>       2       5.0739908000     24.1278772000  2
| 35>       3      11.3600000000     28.3406163000  2
| 36>       4       5.6800000000      4.9446292000  2
| 37>     d 4
| 38>       1       7.6714231000     67.5158967000  2
| 39>       2       4.1365647000      9.8701041000  2
| 40>       3      11.3600000000     28.3406163000  2
| 41>       4       5.6800000000      4.9446292000  2
| 42>     f 2
| 43>       1      11.3600000000    -28.3406163000  2
| 44>       2       5.6800000000     -4.9446292000  2
| 45>   end
| 46>   NewGTO 44
| 47>     s 2
| 48>      1      16.0000000000     -1.5737642279
| 49>      2      13.9105816940      2.5589062345
| 50>     s 1
| 51>      1       4.7967971407      1.0000000000
| 52>     s 1
| 53>      1       1.1555425594      1.0000000000
| 54>     s 1
| 55>      1       0.5245574118      1.0000000000
| 56>     s 1
| 57>      1       0.1073457265      1.0000000000
| 58>     s 1
| 59>      1       0.0394327602      1.0000000000
| 60>     p 4
| 61>      1      11.1872086710      0.0614129072
| 62>      2       6.2477688734     -0.2622856795
| 63>      3       1.6279472859      0.5523344774
| 64>      4       0.7932649354      0.5793783366
| 65>     p 1
| 66>      1       0.3670727686      1.0000000000
| 67>     p 1
| 68>      1       0.1150000000      1.0000000000
| 69>     p 1
| 70>      1       0.0370000000      1.0000000000
| 71>     d 3
| 72>      1       5.7341846619     -0.0576319015
| 73>      2       2.2483686294      0.3562966266
| 74>      3       0.9837697836      0.7306439889
| 75>     d 1
| 76>      1       0.4037944558      1.0000000000
| 77>     d 1
| 78>      1       0.1497861817      1.0000000000
| 79>   end
| 80>   NewAuxGTO 44
| 81>     S 1
| 82>      1 1310.72 1.0
| 83>     S 1
| 84>      1  655.36 1.0
| 85>     S 1
| 86>      1  327.68 1.0
| 87>     S 1
| 88>      1  163.84 1.0
| 89>     S 1
| 90>      1   81.82 1.0
| 91>     S 1
| 92>      1   40.96 1.0
| 93>     S 1
| 94>      1   20.48 1.0
| 95>     S 1
| 96>      1   10.24 1.0
| 97>     S 1
| 98>      1    5.12 1.0
| 99>     S 1
|100>      1    2.56 1.0
|101>     S 1
|102>      1    1.28 1.0
|103>     S 1
|104>      1    0.64 1.0
|105>     S 1
|106>      1    0.32 1.0
|107>     S 1
|108>      1    0.16 1.0
|109>     S 1
|110>      1    0.08 1.0
|111>     S 1
|112>      1    0.04 1.0
|113>     S 1
|114>      1    0.02 1.0
|115>     S 1
|116>      1    0.01 1.0
|117>   end
|118> end
|119>
|120> * xyz 0 5
|121> 44  0.0 0.0 0.0
|122> *
|123>
|124>
|125>                          ****END OF INPUT****

CARTESIAN COORDINATES (ANGSTROEM)
---------------------------------
  Ru     0.000000    0.000000    0.000000

 Total Charge           Charge          ....    0
 Multiplicity           Mult            ....    5
 Number of Electrons    NEL             ....   16
 Basis Dimension        Dim             ....   33

ORBITAL ENERGIES
----------------

  NO   OCC          E(Eh)            E(eV)
   0   2.0000      -3.516546       -95.6901
   1   2.0000      -2.211313       -60.1729
   2   2.0000      -2.210204       -60.1427
   3   2.0000      -2.202170       -59.9241
   4   2.0000      -0.370472       -10.0811
   5   1.2000      -0.436805       -11.8861
   6   1.2000      -0.436713       -11.8836
   7   1.2000      -0.417804       -11.3690
   8   1.2000      -0.415180       -11.2976
   9   1.2000      -0.246283        -6.7017
  10   0.0000       0.012304         0.3348
  11   0.0000       0.012966         0.3528
  12   0.0000       0.017643         0.4801
  13   0.0000       0.161081         4.3832
  14   0.0000       0.220378         5.9968

CleanUpVectors: The p-vectors have cracked symmetry
CleanUpVectors: The p-vectors have cracked symmetry
CleanUpVectors: The p-vectors have cracked symmetry
CleanUpVectors: The d-vectors have cracked symmetry at i=4
CleanUpVectors: The d-vectors have cracked symmetry at i=5
CleanUpVectors: The d-vectors have cracked symmetry at i=6
CleanUpVectors: The d-vectors have cracked symmetry at i=7
CleanUpVectors: The d-vectors have cracked symmetry at i=8
CleanUpVectors: The p-vectors have cracked symmetry
CleanUpVectors: The p-vectors have cracked symmetry
CleanUpVectors: The p-vectors have cracked symmetry
CleanUpVectors: The p-vectors have cracked symmetry
CleanUpVectors: The p-vectors have cracked symmetry
CleanUpVectors: The p-vectors have cracked symmetry
CleanUpVectors: The d-vectors have cracked symmetry at i=17
CleanUpVectors: The d-vectors have cracked symmetry at i=18
CleanUpVectors: The d-vectors have cracked symmetry at i=19
CleanUpVectors: The d-vectors have cracked symmetry at i=20
CleanUpVectors: The d-vectors have cracked symmetry at i=21
CleanUpVectors: The p-vectors have cracked symmetry
CleanUpVectors: The p-vectors have cracked symmetry
CleanUpVectors: The p-vectors have cracked symmetry
CleanUpVectors: The d-vectors have cracked symmetry at i=26
CleanUpVectors: The d-vectors have cracked symmetry at i=27
CleanUpVectors: The d-vectors have cracked symmetry at i=28
--------------------------
ATOM BASIS FOR ELEMENT Ru
--------------------------
 NewGTO Ru
 S 7
    1         16.000000000000        -0.243565927589
    2         13.910581694000         0.396032874282
    3          4.796797140700        -0.651904924081
    4          1.155542559400         0.848408070712
    5          0.524557411800         0.453039699033
    6          0.107345726500         0.015963712440
    7          0.039432760200        -0.004004444276
 P 19
    1         11.187208671000         0.004341841004
    2          6.247768873400        -0.018543377442
    3          1.627947285900         0.039049584057
    4          0.793264935400         0.040961562209
    5         11.187208671000        -0.052083965087
    6          6.247768873400         0.222443111663
    7          1.627947285900        -0.468431978696
    8          0.793264935400        -0.491367734103
    9         11.187208671000         0.006783461366
   10          6.247768873400        -0.028971186269
   11          1.627947285900         0.061008992402
   12          0.793264935400         0.063996165334
   13          0.367072768600         0.014532920371
   14          0.367072768600        -0.174334370259
   15          0.367072768600         0.022705461527
   16          0.115000000000         0.000847160506
   17          0.115000000000        -0.010162389220
   18          0.115000000000         0.001323558499
   19          0.037000000000        -0.000069506981
 D 19
    1         16.000000000000         0.000032138972
    2         13.910581694000        -0.000060106491
    3          4.796797140700         0.000308652608
    4          1.155542559400        -0.002779320792
    5          0.524557411800         0.001089592614
    6          0.107345726500         0.025593213122
    7          0.039432760200        -0.059977678221
    8          5.734184661900         0.014218312695
    9          2.248368629400        -0.087901608613
   10          0.983769783600        -0.180256497404
   11          5.734184661900        -0.000901768292
   12          2.248368629400         0.005574985242
   13          0.983769783600         0.011432410950
   14          5.734184661900        -0.028481197701
   15          2.248368629400         0.176078775789
   16          0.983769783600         0.361078072310
   17          5.734184661900        -0.009129189934
   18          2.248368629400         0.056439220161
   19          0.983769783600         0.115737769797
 D 19
    1          5.734184661900         0.002892211018
    2          2.248368629400        -0.017880462078
    3          0.983769783600        -0.036666785933
    4          5.734184661900        -0.019608194232
    5          2.248368629400         0.121223372415
    6          0.983769783600         0.248588175572
    7          5.734184661900         0.004785265538
    8          2.248368629400        -0.029583857621
    9          0.983769783600        -0.060666495626
   10          5.734184661900        -0.008470494030
   11          2.248368629400         0.052366976798
   12          0.983769783600         0.107386974666
   13          5.734184661900        -0.025447725602
   14          2.248368629400         0.157324997971
   15          0.983769783600         0.322620410887
   16          0.403794455800        -0.034445522678
   17          0.403794455800         0.233528776009
   18          0.403794455800        -0.056991336920
   19          0.403794455800         0.100881502893
 P 19
    1         11.187208671000        -0.006288856144
    2          6.247768873400         0.026858798618
    3          1.627947285900        -0.056560619423
    4          0.793264935400        -0.059329987425
    5         11.187208671000         0.000101587765
    6          6.247768873400        -0.000433866708
    7          1.627947285900         0.000913658504
    8          0.793264935400         0.000958393810
    9         11.187208671000         0.004805261695
   10          6.247768873400        -0.020522580452
   11          1.627947285900         0.043217490068
   12          0.793264935400         0.045333540694
   13          0.367072768600         0.014896203754
   14          0.367072768600        -0.000240627549
   15          0.367072768600        -0.011382063074
   16          0.115000000000        -0.038547768080
   17          0.115000000000         0.000622685827
   18          0.115000000000         0.029454022978
   19          0.037000000000         0.819374377172
 P 19
    1         11.187208671000        -0.011506718178
    2          6.247768873400         0.049143535681
    3          1.627947285900        -0.103488948194
    4          0.793264935400        -0.108556059986
    5         11.187208671000         0.000185875102
    6          6.247768873400        -0.000793845784
    7          1.627947285900         0.001671720687
    8          0.793264935400         0.001753572863
    9         11.187208671000         0.008792185865
   10          6.247768873400        -0.037550159225
   11          1.627947285900         0.079075028463
   12          0.793264935400         0.082946765650
   13          0.367072768600        -0.265755590523
   14          0.367072768600         0.004292913650
   15          0.367072768600         0.203061594997
   16          0.115000000000         1.314669615594
   17          0.115000000000        -0.021236667597
   18          0.115000000000        -1.004527914204
   19          0.037000000000        -0.801723870063
 D 19
    1         16.000000000000         0.000040037840
    2         13.910581694000        -0.000074878999
    3          4.796797140700         0.000384833594
    4          1.155542559400        -0.003799123378
    5          0.524557411800         0.001866290427
    6          0.107345726500         0.034059996942
    7          0.039432760200        -0.014447780890
    8          5.734184661900         0.006425944878
    9          2.248368629400        -0.039726998817
   10          0.983769783600        -0.081466650863
   11          5.734184661900        -0.000404177545
   12          2.248368629400         0.002498739279
   13          0.983769783600         0.005124069939
   14          5.734184661900        -0.012853149295
   15          2.248368629400         0.079461784457
   16          0.983769783600         0.162949269867
   17          5.734184661900        -0.004136063264
   18          2.248368629400         0.025570306551
   19          0.983769783600         0.052436058557
 P 19
    1         11.187208671000        -0.068877497140
    2          6.247768873400         0.294165867782
    3          1.627947285900        -0.619469393679
    4          0.793264935400        -0.649800368381
    5         11.187208671000         0.001112620612
    6          6.247768873400        -0.004751842347
    7          1.627947285900         0.010006670454
    8          0.793264935400         0.010496625360
    9         11.187208671000         0.052628711972
   10          6.247768873400        -0.224769647132
   11          1.627947285900         0.473331315003
   12          0.793264935400         0.496506955782
   13          0.367072768600         1.798066391993
   14          0.367072768600        -0.029045273299
   15          0.367072768600        -1.373887295271
   16          0.115000000000        -1.069239998475
   17          0.115000000000         0.017272091907
   18          0.115000000000         0.816997223263
   19          0.037000000000         0.360549916913
 D 19
    1         16.000000000000         0.000371051240
    2         13.910581694000        -0.000693942172
    3          4.796797140700         0.003546366685
    4          1.155542559400        -0.052282625836
    5          0.524557411800         0.114382564687
    6          0.107345726500        -0.216445050243
    7          0.039432760200         0.241386692863
    8          5.734184661900         0.030236191629
    9          2.248368629400        -0.186928641922
   10          0.983769783600        -0.383327481589
   11          5.734184661900        -0.001817558406
   12          2.248368629400         0.011236657338
   13          0.983769783600         0.023042587345
   14          5.734184661900        -0.060007035325
   15          2.248368629400         0.370980372016
   16          0.983769783600         0.760755389126
   17          5.734184661900        -0.019714580854
   18          2.248368629400         0.121881084440
   19          0.983769783600         0.249936920696
 end
  // -----------------------------------------------
  // The basis set
  // -----------------------------------------------
  BAS[ATNO] = new BFNGauss[NSH];
  // Basis function   1 L = s
  InitBFNGauss(BAS[ATNO][  0]);
  BAS[ATNO][  0].l  = 0;
  BAS[ATNO][  0].ng = 7;
  BAS[ATNO][  0].a[  0] =        16.000000000000;     BAS[ATNO][  0].d[  0] =        -0.243565927589;
  BAS[ATNO][  0].a[  1] =        13.910581694000;     BAS[ATNO][  0].d[  1] =         0.396032874282;
  BAS[ATNO][  0].a[  2] =         4.796797140700;     BAS[ATNO][  0].d[  2] =        -0.651904924081;
  BAS[ATNO][  0].a[  3] =         1.155542559400;     BAS[ATNO][  0].d[  3] =         0.848408070712;
  BAS[ATNO][  0].a[  4] =         0.524557411800;     BAS[ATNO][  0].d[  4] =         0.453039699033;
  BAS[ATNO][  0].a[  5] =         0.107345726500;     BAS[ATNO][  0].d[  5] =         0.015963712440;
  BAS[ATNO][  0].a[  6] =         0.039432760200;     BAS[ATNO][  0].d[  6] =        -0.004004444276;

FINAL SINGLE POINT ENERGY       -94.088760145766

DIPOLE MOMENT
-------------
                                X             Y             Z
Electronic contribution:      0.00000      -0.00000       0.00000
Nuclear contribution   :      0.00000       0.00000       0.00000
                        -----------------------------------------
Total Dipole Moment    :      0.00000      -0.00000       0.00000
                        -----------------------------------------
Magnitude (a.u.)       :      0.00000
Magnitude (Debye)      :      0.00000

Rotational constants in cm-1:     0.000000     0.000000     0.000000
Rotational constants in MHz :     0.000000     0.000000     0.000000

                             ****ORCA TERMINATED NORMALLY****
TOTAL RUN TIME: 0 days 0 hours 0 minutes 4 seconds 181 msec
