                         Program Version 4.2.0 -  RELEASE  -
|  1> #
|  2> # MOR33_pr28 wB97X-V/Def2-TZVPPD
|  3> #
|  4> ! wb97x-v def2-tzvppd def2/jk grid4 nofinalgrid
|  5>
|  6> *xyz 0 1
|  7> C        1.962238    1.228976    0.498763
|  8> C        1.599117    0.285883    1.541183
|  9> C        2.190996   -0.926462   -0.368778
| 10> C        2.300550    0.493131   -0.671789
| 11> C        2.081248    2.713946    0.664976
| 12> H        1.434728    3.080045    1.466376
| 13> H        1.821015    3.245065   -0.254703
| 14> H        3.112287    2.986784    0.927647
| 15> C        2.741378    1.051608   -1.988266
| 16> H        2.535990    2.123448   -2.051886
| 17> H        2.213045    0.558789   -2.809947
| 18> H        3.820515    0.902993   -2.128525
| 19> C        2.527241   -2.035347   -1.317221
| 20> H        3.613873   -2.134320   -1.446849
| 21> H        2.080344   -1.846887   -2.298459
| 22> H        2.144835   -2.993343   -0.953257
| 23> C        1.716574   -2.315630    1.788054
| 24> H        2.711935   -2.577282    2.171299
| 25> H        1.368788   -3.152284    1.175589
| 26> H        1.050088   -2.217418    2.648594
| 27> C        1.340513    0.619038    2.979845
| 28> H        2.276059    0.647386    3.557074
| 29> H        0.683714   -0.121696    3.445256
| 30> H        0.861589    1.596880    3.080055
| 31> Ru       0.207249   -0.005545   -0.119227
| 32> Cl      -0.429544   -0.245973   -2.480800
| 33> P       -1.456891    1.528216    0.068580
| 34> C       -1.650760    2.737817   -1.304822
| 35> H       -1.703179    2.179367   -2.242601
| 36> H       -0.763254    3.377318   -1.338338
| 37> H       -2.542801    3.360896   -1.175052
| 38> C       -1.549065    2.651656    1.528190
| 39> H       -2.472379    3.241595    1.506577
| 40> H       -0.697323    3.336564    1.527717
| 41> H       -1.520496    2.059136    2.446687
| 42> C       -3.144680    0.720288    0.161598
| 43> H       -3.432756    0.709722    1.219807
| 44> H       -3.887248    1.321720   -0.374189
| 45> C        1.787636   -1.042026    1.001372
| 46> P       -1.484414   -1.469966    0.216463
| 47> H       -2.382409   -3.625079   -0.568542
| 48> H       -0.624918   -3.689033   -0.270965
| 49> H       -1.236340   -2.863867   -1.723131
| 50> C       -3.065590   -0.710530   -0.380679
| 51> C       -1.439182   -3.076884   -0.670420
| 52> C       -1.931261   -2.000447    1.926464
| 53> H       -2.988264   -0.701756   -1.472521
| 54> H       -3.935017   -1.311110   -0.088429
| 55> H       -1.104361   -2.563780    2.366010
| 56> H       -2.827619   -2.630913    1.925421
| 57> H       -2.109292   -1.117280    2.546403
| 58> *
| 59>
| 60> %maxcore 5000
| 61>
| 62> %pal
| 63> nprocs = 24
| 64> end
| 65>
| 66>
| 67>                          ****END OF INPUT****

CARTESIAN COORDINATES (ANGSTROEM)
---------------------------------
  C      1.962238    1.228976    0.498763
  C      1.599117    0.285883    1.541183
  C      2.190996   -0.926462   -0.368778
  C      2.300550    0.493131   -0.671789
  C      2.081248    2.713946    0.664976
  H      1.434728    3.080045    1.466376
  H      1.821015    3.245065   -0.254703
  H      3.112287    2.986784    0.927647
  C      2.741378    1.051608   -1.988266
  H      2.535990    2.123448   -2.051886
  H      2.213045    0.558789   -2.809947
  H      3.820515    0.902993   -2.128525
  C      2.527241   -2.035347   -1.317221
  H      3.613873   -2.134320   -1.446849
  H      2.080344   -1.846887   -2.298459
  H      2.144835   -2.993343   -0.953257
  C      1.716574   -2.315630    1.788054
  H      2.711935   -2.577282    2.171299
  H      1.368788   -3.152284    1.175589
  H      1.050088   -2.217418    2.648594
  C      1.340513    0.619038    2.979845
  H      2.276059    0.647386    3.557074
  H      0.683714   -0.121696    3.445256
  H      0.861589    1.596880    3.080055
  Ru     0.207249   -0.005545   -0.119227
  Cl    -0.429544   -0.245973   -2.480800
  P     -1.456891    1.528216    0.068580
  C     -1.650760    2.737817   -1.304822
  H     -1.703179    2.179367   -2.242601
  H     -0.763254    3.377318   -1.338338
  H     -2.542801    3.360896   -1.175052
  C     -1.549065    2.651656    1.528190
  H     -2.472379    3.241595    1.506577
  H     -0.697323    3.336564    1.527717
  H     -1.520496    2.059136    2.446687
  C     -3.144680    0.720288    0.161598
  H     -3.432756    0.709722    1.219807
  H     -3.887248    1.321720   -0.374189
  C      1.787636   -1.042026    1.001372
  P     -1.484414   -1.469966    0.216463
  H     -2.382409   -3.625079   -0.568542
  H     -0.624918   -3.689033   -0.270965
  H     -1.236340   -2.863867   -1.723131
  C     -3.065590   -0.710530   -0.380679
  C     -1.439182   -3.076884   -0.670420
  C     -1.931261   -2.000447    1.926464
  H     -2.988264   -0.701756   -1.472521
  H     -3.935017   -1.311110   -0.088429
  H     -1.104361   -2.563780    2.366010
  H     -2.827619   -2.630913    1.925421
  H     -2.109292   -1.117280    2.546403

 Total Charge           Charge          ....    0
 Multiplicity           Mult            ....    1
 Number of Electrons    NEL             ....  190
 Basis Dimension        Dim             .... 1322

ORBITAL ENERGIES
----------------

  NO   OCC          E(Eh)            E(eV)
   0   2.0000    -101.414401     -2759.6261
   1   2.0000     -77.088949     -2097.6970
   2   2.0000     -77.088125     -2097.6745
   3   2.0000     -10.288738      -279.9708
   4   2.0000     -10.285137      -279.8728
   5   2.0000     -10.281023      -279.7609
   6   2.0000     -10.280146      -279.7370
   7   2.0000     -10.279063      -279.7075
   8   2.0000     -10.274365      -279.5797
   9   2.0000     -10.274214      -279.5756
  10   2.0000     -10.273811      -279.5646
  11   2.0000     -10.273693      -279.5614
  12   2.0000     -10.272109      -279.5183
  13   2.0000     -10.270204      -279.4665
  14   2.0000     -10.269149      -279.4377
  15   2.0000     -10.263827      -279.2929
  16   2.0000     -10.260384      -279.1992
  17   2.0000     -10.254945      -279.0512
  18   2.0000     -10.252330      -278.9801
  19   2.0000      -9.454179      -257.2613
  20   2.0000      -7.205864      -196.0815
  21   2.0000      -7.201871      -195.9729
  22   2.0000      -7.201728      -195.9690
  23   2.0000      -6.666898      -181.4155
  24   2.0000      -6.666403      -181.4021
  25   2.0000      -4.820946      -131.1846
  26   2.0000      -4.820433      -131.1706
  27   2.0000      -4.820357      -131.1686
  28   2.0000      -4.819941      -131.1573
  29   2.0000      -4.816776      -131.0711
  30   2.0000      -4.816320      -131.0587
  31   2.0000      -3.100852       -84.3785
  32   2.0000      -1.963655       -53.4338
  33   2.0000      -1.938343       -52.7450
  34   2.0000      -1.936730       -52.7011
  35   2.0000      -1.019054       -27.7299
  36   2.0000      -0.935739       -25.4628
  37   2.0000      -0.911308       -24.7980
  38   2.0000      -0.904977       -24.6257
  39   2.0000      -0.892370       -24.2826
  40   2.0000      -0.861370       -23.4391
  41   2.0000      -0.850294       -23.1377
  42   2.0000      -0.840650       -22.8752
  43   2.0000      -0.838979       -22.8298
  44   2.0000      -0.836693       -22.7676
  45   2.0000      -0.825016       -22.4498
  46   2.0000      -0.821727       -22.3603
  47   2.0000      -0.758819       -20.6485
  48   2.0000      -0.746456       -20.3121
  49   2.0000      -0.739030       -20.1100
  50   2.0000      -0.685294       -18.6478
  51   2.0000      -0.644281       -17.5318
  52   2.0000      -0.629761       -17.1367
  53   2.0000      -0.628819       -17.1110
  54   2.0000      -0.581976       -15.8364
  55   2.0000      -0.577355       -15.7106
  56   2.0000      -0.570918       -15.5355
  57   2.0000      -0.563929       -15.3453
  58   2.0000      -0.549690       -14.9578
  59   2.0000      -0.544291       -14.8109
  60   2.0000      -0.542864       -14.7721
  61   2.0000      -0.538091       -14.6422
  62   2.0000      -0.535952       -14.5840
  63   2.0000      -0.531893       -14.4735
  64   2.0000      -0.526542       -14.3279
  65   2.0000      -0.522396       -14.2151
  66   2.0000      -0.520715       -14.1694
  67   2.0000      -0.514579       -14.0024
  68   2.0000      -0.513886       -13.9836
  69   2.0000      -0.508889       -13.8476
  70   2.0000      -0.505287       -13.7496
  71   2.0000      -0.500599       -13.6220
  72   2.0000      -0.497968       -13.5504
  73   2.0000      -0.495792       -13.4912
  74   2.0000      -0.482239       -13.1224
  75   2.0000      -0.478117       -13.0102
  76   2.0000      -0.475431       -12.9371
  77   2.0000      -0.474957       -12.9242
  78   2.0000      -0.451848       -12.2954
  79   2.0000      -0.442350       -12.0369
  80   2.0000      -0.437493       -11.9048
  81   2.0000      -0.433010       -11.7828
  82   2.0000      -0.430734       -11.7209
  83   2.0000      -0.425800       -11.5866
  84   2.0000      -0.413839       -11.2611
  85   2.0000      -0.392845       -10.6898
  86   2.0000      -0.391841       -10.6625
  87   2.0000      -0.384192       -10.4544
  88   2.0000      -0.361275        -9.8308
  89   2.0000      -0.357274        -9.7219
  90   2.0000      -0.329692        -8.9714
  91   2.0000      -0.325224        -8.8498
  92   2.0000      -0.298442        -8.1210
  93   2.0000      -0.279307        -7.6003
  94   2.0000      -0.264489        -7.1971
  95   0.0000       0.046372         1.2618
  96   0.0000       0.055426         1.5082
  97   0.0000       0.061234         1.6663
  98   0.0000       0.063790         1.7358
  99   0.0000       0.075755         2.0614

MULLIKEN ATOMIC CHARGES
-----------------------
   0 C :    0.171528
   1 C :    0.777793
   2 C :    0.558828
   3 C :    0.719643
   4 C :   -0.321199
   5 H :   -0.019619
   6 H :    0.072152
   7 H :    0.100421
   8 C :   -0.625673
   9 H :    0.063527
  10 H :    0.055086
  11 H :    0.119576
  12 C :   -0.703859
  13 H :    0.131043
  14 H :    0.054841
  15 H :    0.054824
  16 C :   -0.315202
  17 H :    0.102416
  18 H :    0.062245
  19 H :    0.004224
  20 C :   -0.621086
  21 H :    0.089761
  22 H :    0.056179
  23 H :    0.054584
  24 Ru:   -2.006315
  25 Cl:   -0.559953
  26 P :    1.328002
  27 C :   -0.689887
  28 H :    0.065996
  29 H :    0.083929
  30 H :    0.173723
  31 C :   -0.531413
  32 H :    0.151236
  33 H :    0.045122
  34 H :    0.030925
  35 C :   -0.326599
  36 H :    0.141991
  37 H :    0.196638
  38 C :    0.262792
  39 P :    1.143157
  40 H :    0.165361
  41 H :    0.096429
  42 H :    0.049789
  43 C :    0.008684
  44 C :   -0.555152
  45 C :   -0.572181
  46 H :    0.192384
  47 H :    0.170377
  48 H :    0.092257
  49 H :    0.155050
  50 H :    0.045623
Sum of atomic charges:    0.0000000

LOEWDIN ATOMIC CHARGES
----------------------
   0 C :   -0.245202
   1 C :   -0.264340
   2 C :   -0.264203
   3 C :   -0.260751
   4 C :    0.166234
   5 H :   -0.035967
   6 H :   -0.015880
   7 H :    0.006291
   8 C :    0.155383
   9 H :   -0.015771
  10 H :   -0.048857
  11 H :    0.002391
  12 C :    0.160718
  13 H :    0.000071
  14 H :   -0.030284
  15 H :   -0.018982
  16 C :    0.163587
  17 H :    0.007480
  18 H :   -0.022169
  19 H :   -0.030674
  20 C :    0.162285
  21 H :    0.003201
  22 H :   -0.017381
  23 H :   -0.028287
  24 Ru:    0.461503
  25 Cl:   -0.009506
  26 P :    0.820258
  27 C :   -0.027414
  28 H :   -0.096638
  29 H :   -0.056555
  30 H :   -0.050638
  31 C :   -0.011317
  32 H :   -0.045477
  33 H :   -0.069456
  34 H :   -0.058312
  35 C :   -0.197714
  36 H :   -0.030093
  37 H :   -0.018873
  38 C :   -0.260013
  39 P :    0.794289
  40 H :   -0.047084
  41 H :   -0.061690
  42 H :   -0.082992
  43 C :   -0.226367
  44 C :   -0.012232
  45 C :    0.004062
  46 H :   -0.054367
  47 H :   -0.017591
  48 H :   -0.071206
  49 H :   -0.046720
  50 H :   -0.056753

  Mayer bond orders larger than 0.100000
B(  0-C ,  1-C ) :  -0.2187 B(  0-C ,  2-C ) :  -0.3003 B(  0-C ,  3-C ) :   0.4167
B(  0-C ,  4-C ) :   0.9628 B(  0-C ,  6-H ) :  -0.1023 B(  0-C ,  8-C ) :  -0.1483
B(  0-C , 12-C ) :   0.1044 B(  0-C , 24-Ru) :   1.0007 B(  0-C , 38-C ) :   0.2405
B(  1-C ,  4-C ) :  -0.1491 B(  1-C , 20-C ) :   0.9591 B(  1-C , 22-H ) :  -0.1524
B(  1-C , 23-H ) :  -0.1188 B(  1-C , 26-P ) :   0.2576 B(  1-C , 38-C ) :   0.1319
B(  2-C ,  3-C ) :   0.7519 B(  2-C ,  8-C ) :  -0.1360 B(  2-C , 12-C ) :   1.2047
B(  2-C , 14-H ) :  -0.1029 B(  2-C , 20-C ) :   0.1022 B(  2-C , 25-Cl) :  -0.1330
B(  2-C , 38-C ) :   0.3100 B(  3-C ,  8-C ) :   1.1633 B(  3-C , 12-C ) :  -0.2321
B(  3-C , 14-H ) :   0.1110 B(  3-C , 38-C ) :  -0.2674 B(  4-C ,  5-H ) :   0.9619
B(  4-C ,  6-H ) :   0.9785 B(  4-C ,  7-H ) :   0.9563 B(  4-C ,  8-C ) :   0.1359
B(  4-C , 20-C ) :   0.1259 B(  4-C , 24-Ru) :   0.1223 B(  8-C ,  9-H ) :   0.9562
B(  8-C , 10-H ) :   0.9566 B(  8-C , 11-H ) :   0.9480 B(  8-C , 12-C ) :   0.2506
B(  8-C , 24-Ru) :   0.2461 B(  8-C , 38-C ) :   0.1198 B( 12-C , 13-H ) :   0.9372
B( 12-C , 14-H ) :   0.9693 B( 12-C , 15-H ) :   0.9773 B( 12-C , 16-C ) :   0.1008
B( 12-C , 24-Ru) :   0.3520 B( 12-C , 38-C ) :  -0.1741 B( 16-C , 17-H ) :   0.9703
B( 16-C , 18-H ) :   0.9673 B( 16-C , 19-H ) :   0.9634 B( 16-C , 20-C ) :   0.1090
B( 16-C , 38-C ) :   0.9455 B( 18-H , 19-H ) :   0.1028 B( 20-C , 21-H ) :   0.9354
B( 20-C , 22-H ) :   1.0353 B( 20-C , 23-H ) :   0.9930 B( 20-C , 24-Ru) :   0.1339
B( 20-C , 38-C ) :  -0.2335 B( 24-Ru, 25-Cl) :   0.8067 B( 24-Ru, 26-P ) :   0.9327
B( 24-Ru, 27-C ) :   0.2007 B( 24-Ru, 31-C ) :   0.1733 B( 24-Ru, 38-C ) :   1.2265
B( 24-Ru, 39-P ) :   0.9668 B( 24-Ru, 44-C ) :   0.1482 B( 24-Ru, 45-C ) :   0.2100
B( 25-Cl, 26-P ) :  -0.1580 B( 25-Cl, 39-P ) :   0.1264 B( 26-P , 27-C ) :   0.8206
B( 26-P , 31-C ) :   0.8136 B( 26-P , 35-C ) :   0.5050 B( 26-P , 39-P ) :  -0.3278
B( 26-P , 43-C ) :   0.1819 B( 27-C , 28-H ) :   1.0136 B( 27-C , 29-H ) :   0.9951
B( 27-C , 30-H ) :   0.9492 B( 27-C , 31-C ) :   0.1570 B( 27-C , 35-C ) :   0.1510
B( 31-C , 32-H ) :   0.9760 B( 31-C , 33-H ) :   0.9568 B( 31-C , 34-H ) :   1.0007
B( 31-C , 35-C ) :   0.1592 B( 35-C , 36-H ) :   0.8997 B( 35-C , 37-H ) :   0.8695
B( 35-C , 39-P ) :   0.5347 B( 35-C , 43-C ) :   0.9861 B( 39-P , 43-C ) :   0.2671
B( 39-P , 44-C ) :   0.8686 B( 39-P , 45-C ) :   0.7427 B( 40-H , 44-C ) :   0.9439
B( 41-H , 44-C ) :   0.9625 B( 42-H , 44-C ) :   0.9582 B( 43-C , 45-C ) :   0.1680
B( 43-C , 46-H ) :   0.9207 B( 43-C , 47-H ) :   0.9095 B( 44-C , 45-C ) :   0.1372
B( 45-C , 48-H ) :   0.9795 B( 45-C , 49-H ) :   0.9605 B( 45-C , 50-H ) :   0.9923

FINAL SINGLE POINT ENERGY     -1866.308409454119

DIPOLE MOMENT
-------------
                                X             Y             Z
Electronic contribution:     11.96711      -1.42804     -17.64033
Nuclear contribution   :    -12.48154       1.60484      19.54441
                        -----------------------------------------
Total Dipole Moment    :     -0.51442       0.17680       1.90408
                        -----------------------------------------
Magnitude (a.u.)       :      1.98025
Magnitude (Debye)      :      5.03340

Rotational constants in cm-1:     0.010225     0.008868     0.007900
Rotational constants in MHz :   306.523373   265.843264   236.824033

                             ****ORCA TERMINATED NORMALLY****
TOTAL RUN TIME: 0 days 1 hours 7 minutes 7 seconds 136 msec
