                         Program Version 4.2.0 -  RELEASE  -
|  1> #
|  2> # MOR30_pr12 wB97X-V/Def2-TZVPPD
|  3> #
|  4> ! wb97x-v def2-tzvppd def2/jk grid4 nofinalgrid
|  5>
|  6> *xyz 0 1
|  7> Cr      -0.000015    0.000077   -0.030936
|  8> O       -3.048010    0.000059    0.176284
|  9> C       -1.899390    0.000055    0.076972
| 10> C        0.001618   -0.001981    1.838499
| 11> O        0.002800   -0.003409    2.993522
| 12> C        1.899510    0.000027    0.074271
| 13> O        3.048267   -0.000019    0.172029
| 14> C       -0.000196    1.904845   -0.051611
| 15> O       -0.000396    3.057825   -0.041163
| 16> C       -0.000244   -1.904616   -0.055186
| 17> O       -0.000506   -3.057616   -0.046760
| 18> C       -0.692601    0.002127   -2.246320
| 19> H       -1.244106   -0.917771   -2.406195
| 20> H       -1.243862    0.922423   -2.404834
| 21> C        0.689570    0.001986   -2.247230
| 22> H        1.240812    0.922165   -2.406446
| 23> H        1.240675   -0.918028   -2.407739
| 24> *
| 25>
| 26> %maxcore 5000
| 27>
| 28> %pal
| 29> nprocs = 24
| 30> end
| 31>
| 32>
| 33>                          ****END OF INPUT****

CARTESIAN COORDINATES (ANGSTROEM)
---------------------------------
  Cr    -0.000015    0.000077   -0.030936
  O     -3.048010    0.000059    0.176284
  C     -1.899390    0.000055    0.076972
  C      0.001618   -0.001981    1.838499
  O      0.002800   -0.003409    2.993522
  C      1.899510    0.000027    0.074271
  O      3.048267   -0.000019    0.172029
  C     -0.000196    1.904845   -0.051611
  O     -0.000396    3.057825   -0.041163
  C     -0.000244   -1.904616   -0.055186
  O     -0.000506   -3.057616   -0.046760
  C     -0.692601    0.002127   -2.246320
  H     -1.244106   -0.917771   -2.406195
  H     -1.243862    0.922423   -2.404834
  C      0.689570    0.001986   -2.247230
  H      1.240812    0.922165   -2.406446
  H      1.240675   -0.918028   -2.407739

 Total Charge           Charge          ....    0
 Multiplicity           Mult            ....    1
 Number of Electrons    NEL             ....  110
 Basis Dimension        Dim             ....  594

ORBITAL ENERGIES
----------------

  NO   OCC          E(Eh)            E(eV)
   0   2.0000    -215.666296     -5868.5783
   1   2.0000     -24.805959      -675.0045
   2   2.0000     -21.090989      -573.9150
   3   2.0000     -21.089264      -573.8680
   4   2.0000     -21.088401      -573.8446
   5   2.0000     -19.307020      -525.3707
   6   2.0000     -19.307015      -525.3706
   7   2.0000     -19.303165      -525.2658
   8   2.0000     -19.303164      -525.2658
   9   2.0000     -19.292983      -524.9888
  10   2.0000     -10.406287      -283.1695
  11   2.0000     -10.406285      -283.1694
  12   2.0000     -10.404260      -283.1143
  13   2.0000     -10.404254      -283.1142
  14   2.0000     -10.398202      -282.9495
  15   2.0000     -10.317222      -280.7459
  16   2.0000     -10.316617      -280.7294
  17   2.0000      -3.003551       -81.7308
  18   2.0000      -1.952715       -53.1361
  19   2.0000      -1.948412       -53.0190
  20   2.0000      -1.947820       -53.0029
  21   2.0000      -1.276732       -34.7416
  22   2.0000      -1.276463       -34.7343
  23   2.0000      -1.274152       -34.6714
  24   2.0000      -1.274127       -34.6708
  25   2.0000      -1.263683       -34.3866
  26   2.0000      -0.935989       -25.4696
  27   2.0000      -0.752039       -20.4640
  28   2.0000      -0.737510       -20.0687
  29   2.0000      -0.697293       -18.9743
  30   2.0000      -0.691891       -18.8273
  31   2.0000      -0.690960       -18.8020
  32   2.0000      -0.684760       -18.6333
  33   2.0000      -0.628581       -17.1045
  34   2.0000      -0.618714       -16.8361
  35   2.0000      -0.601687       -16.3727
  36   2.0000      -0.597235       -16.2516
  37   2.0000      -0.595890       -16.2150
  38   2.0000      -0.595283       -16.1985
  39   2.0000      -0.584734       -15.9114
  40   2.0000      -0.579677       -15.7738
  41   2.0000      -0.578005       -15.7283
  42   2.0000      -0.568810       -15.4781
  43   2.0000      -0.565636       -15.3918
  44   2.0000      -0.565056       -15.3760
  45   2.0000      -0.564933       -15.3726
  46   2.0000      -0.553109       -15.0509
  47   2.0000      -0.533138       -14.5074
  48   2.0000      -0.522279       -14.2119
  49   2.0000      -0.519973       -14.1492
  50   2.0000      -0.500383       -13.6161
  51   2.0000      -0.428067       -11.6483
  52   2.0000      -0.334757        -9.1092
  53   2.0000      -0.333589        -9.0774
  54   2.0000      -0.326921        -8.8960
  55   0.0000       0.024295         0.6611
  56   0.0000       0.033680         0.9165
  57   0.0000       0.038776         1.0552
  58   0.0000       0.042074         1.1449
  59   0.0000       0.042155         1.1471

MULLIKEN ATOMIC CHARGES
-----------------------
   0 Cr:   -0.723053
   1 O :   -0.252311
   2 C :    0.354351
   3 C :    0.411505
   4 O :   -0.263351
   5 C :    0.353905
   6 O :   -0.252290
   7 C :    0.387810
   8 O :   -0.245675
   9 C :    0.387497
  10 O :   -0.245661
  11 C :   -0.123483
  12 H :    0.083506
  13 H :    0.083447
  14 C :   -0.123265
  15 H :    0.083509
  16 H :    0.083559
Sum of atomic charges:   -0.0000000

LOEWDIN ATOMIC CHARGES
----------------------
   0 Cr:   -0.440242
   1 O :    0.159206
   2 C :   -0.099798
   3 C :   -0.114512
   4 O :    0.149836
   5 C :   -0.099811
   6 O :    0.159208
   7 C :   -0.066101
   8 O :    0.157772
   9 C :   -0.066141
  10 O :    0.157778
  11 C :    0.076433
  12 H :   -0.012521
  13 H :   -0.012498
  14 C :    0.076420
  15 H :   -0.012499
  16 H :   -0.012530

  Mayer bond orders larger than 0.100000
B(  0-Cr,  1-O ) :   0.1081 B(  0-Cr,  2-C ) :   0.9015 B(  0-Cr,  3-C ) :   1.1317
B(  0-Cr,  4-O ) :   0.1340 B(  0-Cr,  5-C ) :   0.9012 B(  0-Cr,  6-O ) :   0.1082
B(  0-Cr,  7-C ) :   0.9092 B(  0-Cr,  8-O ) :   0.1390 B(  0-Cr,  9-C ) :   0.9084
B(  0-Cr, 10-O ) :   0.1390 B(  0-Cr, 11-C ) :   0.2476 B(  0-Cr, 14-C ) :   0.2477
B(  1-O ,  2-C ) :   2.1685 B(  3-C ,  4-O ) :   2.1582 B(  5-C ,  6-O ) :   2.1682
B(  7-C ,  8-O ) :   2.1558 B(  9-C , 10-O ) :   2.1557 B( 11-C , 12-H ) :   1.0630
B( 11-C , 13-H ) :   1.0632 B( 11-C , 14-C ) :   1.3674 B( 14-C , 15-H ) :   1.0631
B( 14-C , 16-H ) :   1.0631

FINAL SINGLE POINT ENERGY     -1689.724170601932

DIPOLE MOMENT
-------------
                                X             Y             Z
Electronic contribution:      0.00526      -0.00680       7.79487
Nuclear contribution   :     -0.00600       0.00791      -8.87043
                        -----------------------------------------
Total Dipole Moment    :     -0.00073       0.00111      -1.07556
                        -----------------------------------------
Magnitude (a.u.)       :      1.07556
Magnitude (Debye)      :      2.73386

Rotational constants in cm-1:     0.023439     0.023057     0.021301
Rotational constants in MHz :   702.695821   691.231713   638.589543

                             ****ORCA TERMINATED NORMALLY****
TOTAL RUN TIME: 0 days 0 hours 4 minutes 52 seconds 881 msec
