                         Program Version 4.2.0 -  RELEASE  -
|  1> #
|  2> # MOR35_pr36 wB97X-V/Def2-TZVPPD
|  3> #
|  4> ! wb97x-v def2-tzvppd def2/jk grid4 nofinalgrid
|  5>
|  6> *xyz 0 1
|  7> Mo       0.001156    0.812745    0.000207
|  8> C        1.172497    1.772826   -1.694485
|  9> C        0.639726    0.579325   -2.273801
| 10> C       -0.771247    0.649846   -2.254302
| 11> C       -1.164711    1.879753   -1.653638
| 12> C        0.046469    2.597671   -1.356619
| 13> H        2.218029    2.030602   -1.618416
| 14> H        1.217264   -0.260486   -2.625291
| 15> H       -1.439014   -0.129218   -2.585395
| 16> H       -2.178363    2.230425   -1.528995
| 17> H        0.103229    3.616282   -1.010207
| 18> C       -0.046468    2.595414    1.359819
| 19> C       -1.170703    1.767726    1.696458
| 20> C        0.775662    0.648005    2.254259
| 21> C        1.166251    1.879509    1.655532
| 22> H       -2.216820    2.023173    1.620920
| 23> H       -1.210568   -0.267639    2.623707
| 24> C       -0.635131    0.574168    2.273601
| 25> H        2.179106    2.232469    1.530897
| 26> H       -0.105362    3.614384    1.014912
| 27> H        1.445278   -0.130208    2.583598
| 28> I        1.897907   -1.310822   -0.012606
| 29> I       -1.900461   -1.307301    0.011561
| 30> *
| 31>
| 32> %maxcore 5000
| 33>
| 34> %pal
| 35> nprocs = 24
| 36> end
| 37>
| 38>
| 39>                          ****END OF INPUT****

CARTESIAN COORDINATES (ANGSTROEM)
---------------------------------
  Mo     0.001156    0.812745    0.000207
  C      1.172497    1.772826   -1.694485
  C      0.639726    0.579325   -2.273801
  C     -0.771247    0.649846   -2.254302
  C     -1.164711    1.879753   -1.653638
  C      0.046469    2.597671   -1.356619
  H      2.218029    2.030602   -1.618416
  H      1.217264   -0.260486   -2.625291
  H     -1.439014   -0.129218   -2.585395
  H     -2.178363    2.230425   -1.528995
  H      0.103229    3.616282   -1.010207
  C     -0.046468    2.595414    1.359819
  C     -1.170703    1.767726    1.696458
  C      0.775662    0.648005    2.254259
  C      1.166251    1.879509    1.655532
  H     -2.216820    2.023173    1.620920
  H     -1.210568   -0.267639    2.623707
  C     -0.635131    0.574168    2.273601
  H      2.179106    2.232469    1.530897
  H     -0.105362    3.614384    1.014912
  H      1.445278   -0.130208    2.583598
  I      1.897907   -1.310822   -0.012606
  I     -1.900461   -1.307301    0.011561

 Total Charge           Charge          ....    0
 Multiplicity           Mult            ....    1
 Number of Electrons    NEL             ....  134
 Basis Dimension        Dim             ....  714

ORBITAL ENERGIES
----------------

  NO   OCC          E(Eh)            E(eV)
   0   2.0000     -10.333242      -281.1818
   1   2.0000     -10.333231      -281.1815
   2   2.0000     -10.325151      -280.9616
   3   2.0000     -10.325124      -280.9609
   4   2.0000     -10.323360      -280.9129
   5   2.0000     -10.323313      -280.9116
   6   2.0000     -10.321738      -280.8688
   7   2.0000     -10.321689      -280.8674
   8   2.0000     -10.320488      -280.8347
   9   2.0000     -10.320458      -280.8339
  10   2.0000      -6.890836      -187.5092
  11   2.0000      -6.890823      -187.5088
  12   2.0000      -4.919487      -133.8661
  13   2.0000      -4.919476      -133.8657
  14   2.0000      -4.911912      -133.6599
  15   2.0000      -4.911897      -133.6595
  16   2.0000      -4.911639      -133.6525
  17   2.0000      -4.911625      -133.6521
  18   2.0000      -2.740751       -74.5796
  19   2.0000      -1.972811       -53.6829
  20   2.0000      -1.972782       -53.6821
  21   2.0000      -1.970692       -53.6252
  22   2.0000      -1.970675       -53.6248
  23   2.0000      -1.970366       -53.6164
  24   2.0000      -1.970315       -53.6150
  25   2.0000      -1.964048       -53.4445
  26   2.0000      -1.964033       -53.4441
  27   2.0000      -1.964004       -53.4433
  28   2.0000      -1.963988       -53.4428
  29   2.0000      -1.757709       -47.8297
  30   2.0000      -1.736838       -47.2618
  31   2.0000      -1.718048       -46.7505
  32   2.0000      -1.068169       -29.0664
  33   2.0000      -1.051756       -28.6197
  34   2.0000      -0.893253       -24.3066
  35   2.0000      -0.885228       -24.0883
  36   2.0000      -0.883473       -24.0405
  37   2.0000      -0.881642       -23.9907
  38   2.0000      -0.770005       -20.9529
  39   2.0000      -0.759812       -20.6755
  40   2.0000      -0.720234       -19.5986
  41   2.0000      -0.700076       -19.0500
  42   2.0000      -0.697797       -18.9880
  43   2.0000      -0.696702       -18.9582
  44   2.0000      -0.691346       -18.8125
  45   2.0000      -0.680076       -18.5058
  46   2.0000      -0.573102       -15.5949
  47   2.0000      -0.555178       -15.1072
  48   2.0000      -0.552005       -15.0208
  49   2.0000      -0.551650       -15.0112
  50   2.0000      -0.548490       -14.9252
  51   2.0000      -0.529540       -14.4095
  52   2.0000      -0.524279       -14.2664
  53   2.0000      -0.521113       -14.1802
  54   2.0000      -0.518835       -14.1182
  55   2.0000      -0.511906       -13.9297
  56   2.0000      -0.424012       -11.5379
  57   2.0000      -0.417335       -11.3563
  58   2.0000      -0.410967       -11.1830
  59   2.0000      -0.391344       -10.6490
  60   2.0000      -0.378866       -10.3095
  61   2.0000      -0.362976        -9.8771
  62   2.0000      -0.362258        -9.8576
  63   2.0000      -0.312048        -8.4913
  64   2.0000      -0.310448        -8.4477
  65   2.0000      -0.297800        -8.1036
  66   2.0000      -0.291758        -7.9391
  67   0.0000      -0.001809        -0.0492
  68   0.0000       0.008417         0.2290
  69   0.0000       0.026841         0.7304
  70   0.0000       0.042805         1.1648
  71   0.0000       0.047481         1.2920

MULLIKEN ATOMIC CHARGES
-----------------------
   0 Mo:   -1.141582
   1 C :    0.471189
   2 C :   -0.325975
   3 C :   -0.367495
   4 C :    0.537522
   5 C :   -0.091282
   6 H :   -0.073063
   7 H :    0.243803
   8 H :    0.273935
   9 H :   -0.009173
  10 H :    0.193851
  11 C :   -0.090983
  12 C :    0.471663
  13 C :   -0.369332
  14 C :    0.538576
  15 H :   -0.074169
  16 H :    0.241916
  17 C :   -0.324892
  18 H :   -0.007881
  19 H :    0.193979
  20 H :    0.274533
  21 I :   -0.282665
  22 I :   -0.282474
Sum of atomic charges:    0.0000000

LOEWDIN ATOMIC CHARGES
----------------------
   0 Mo:    0.705722
   1 C :   -0.083645
   2 C :   -0.144751
   3 C :   -0.138821
   4 C :   -0.069360
   5 C :   -0.080671
   6 H :    0.009693
   7 H :   -0.043606
   8 H :   -0.045036
   9 H :    0.012602
  10 H :    0.002363
  11 C :   -0.080646
  12 C :   -0.084272
  13 C :   -0.138805
  14 C :   -0.068883
  15 H :    0.009568
  16 H :   -0.043874
  17 C :   -0.145323
  18 H :    0.012654
  19 H :    0.002342
  20 H :   -0.045184
  21 I :    0.228689
  22 I :    0.229244

  Mayer bond orders larger than 0.100000
B(  0-Mo,  1-C ) :   0.2093 B(  0-Mo,  2-C ) :   0.6805 B(  0-Mo,  3-C ) :   0.6509
B(  0-Mo,  4-C ) :   0.1872 B(  0-Mo,  5-C ) :   0.9177 B(  0-Mo, 11-C ) :   0.9185
B(  0-Mo, 12-C ) :   0.2087 B(  0-Mo, 13-C ) :   0.6518 B(  0-Mo, 14-C ) :   0.1854
B(  0-Mo, 17-C ) :   0.6801 B(  0-Mo, 21-I ) :   0.8806 B(  0-Mo, 22-I ) :   0.8800
B(  1-C ,  2-C ) :   0.8604 B(  1-C ,  3-C ) :  -0.2194 B(  1-C ,  5-C ) :   1.0872
B(  1-C ,  6-H ) :   1.0094 B(  1-C , 11-C ) :  -0.1418 B(  1-C , 14-C ) :   0.3735
B(  2-C ,  3-C ) :   1.1533 B(  2-C ,  4-C ) :  -0.2103 B(  2-C ,  7-H ) :   1.0470
B(  2-C , 21-I ) :   0.2426 B(  3-C ,  4-C ) :   0.8652 B(  3-C ,  8-H ) :   1.0251
B(  3-C , 22-I ) :   0.2817 B(  4-C ,  5-C ) :   1.1086 B(  4-C ,  9-H ) :   0.9781
B(  4-C , 11-C ) :  -0.1537 B(  4-C , 12-C ) :   0.3745 B(  5-C , 10-H ) :   0.9003
B(  5-C , 11-C ) :   0.1813 B(  5-C , 12-C ) :  -0.1405 B(  5-C , 14-C ) :  -0.1538
B(  7-H , 21-I ) :  -0.2130 B(  8-H , 22-I ) :  -0.2274 B( 11-C , 12-C ) :   1.0867
B( 11-C , 14-C ) :   1.1074 B( 11-C , 19-H ) :   0.9002 B( 12-C , 13-C ) :  -0.2199
B( 12-C , 15-H ) :   1.0097 B( 12-C , 17-C ) :   0.8582 B( 13-C , 14-C ) :   0.8653
B( 13-C , 17-C ) :   1.1522 B( 13-C , 20-H ) :   1.0251 B( 13-C , 21-I ) :   0.2810
B( 14-C , 17-C ) :  -0.2093 B( 14-C , 18-H ) :   0.9782 B( 16-H , 17-C ) :   1.0488
B( 16-H , 22-I ) :  -0.2116 B( 17-C , 22-I ) :   0.2430 B( 20-H , 21-I ) :  -0.2277

FINAL SINGLE POINT ENERGY     -1050.810790570649

DIPOLE MOMENT
-------------
                                X             Y             Z
Electronic contribution:     -0.09773    -123.97135      -0.05605
Nuclear contribution   :      0.10150     127.02090       0.05751
                        -----------------------------------------
Total Dipole Moment    :      0.00377       3.04955       0.00146
                        -----------------------------------------
Magnitude (a.u.)       :      3.04955
Magnitude (Debye)      :      7.75134

Rotational constants in cm-1:     0.012573     0.011263     0.008836
Rotational constants in MHz :   376.926737   337.652277   264.898337

                             ****ORCA TERMINATED NORMALLY****
TOTAL RUN TIME: 0 days 0 hours 19 minutes 44 seconds 324 msec
