                         Program Version 4.2.0 -  RELEASE  -
|  1> #
|  2> # MOR37_pr38 wB97X-V/Def2-TZVPPD
|  3> #
|  4> ! wb97x-v def2-tzvppd def2/jk grid4 nofinalgrid
|  5>
|  6> *xyz 0 1
|  7> Mo       0.000368   -0.000951   -0.664236
|  8> C        1.186218    1.095679   -1.824431
|  9> C       -1.543342    0.475450   -1.823831
| 10> C        0.358600   -1.578355   -1.821075
| 11> O        0.584740   -2.492846   -2.512436
| 12> O        1.864319    1.747384   -2.517871
| 13> O       -2.447606    0.735637   -2.516687
| 14> P        1.980785   -0.729448    0.688588
| 15> P       -1.623545   -1.348294    0.688464
| 16> P       -0.357708    2.080403    0.685812
| 17> C       -1.633250    3.223236    0.009653
| 18> H       -1.705660    4.145387    0.596929
| 19> H       -2.603028    2.718106    0.000627
| 20> H       -1.373511    3.465952   -1.024212
| 21> C       -0.858884    2.043709    2.465539
| 22> H       -1.825180    1.541749    2.565977
| 23> H       -0.943418    3.056285    2.875390
| 24> H       -0.120247    1.484663    3.045786
| 25> C        1.092608    3.215640    0.782943
| 26> H        0.848407    4.138527    1.320517
| 27> H        1.418994    3.459201   -0.231490
| 28> H        1.920240    2.713456    1.291867
| 29> C       -1.984130   -3.020964    0.008508
| 30> H       -2.747676   -3.543086    0.595776
| 31> H       -1.064326   -3.612180   -0.003877
| 32> H       -2.325682   -2.913010   -1.024422
| 33> C       -1.336917   -1.769970    2.466070
| 34> H       -2.171293   -2.349509    2.876428
| 35> H       -1.219304   -0.852646    3.048800
| 36> H       -0.419591   -2.357379    2.562237
| 37> C       -3.329045   -0.653966    0.792955
| 38> H       -4.006858   -1.325859    1.330979
| 39> H       -3.705797   -0.489375   -0.219919
| 40> H       -3.303097    0.312486    1.304224
| 41> C        3.608641   -0.198569    0.011444
| 42> H        4.443241   -0.596886    0.599054
| 43> H        3.657034    0.893802    0.001026
| 44> H        3.688452   -0.546249   -1.021993
| 45> C        2.199807   -0.272940    2.467201
| 46> H        3.119209   -0.704894    2.877753
| 47> H        1.346620   -0.631939    3.048604
| 48> H        2.248134    0.815142    2.564989
| 49> C        2.238042   -2.552971    0.789569
| 50> H        3.157648   -2.802349    1.330381
| 51> H        2.288935   -2.958854   -0.224143
| 52> H        1.387609   -3.017788    1.296348
| 53> *
| 54>
| 55> %maxcore 5000
| 56>
| 57> %pal
| 58> nprocs = 24
| 59> end
| 60>
| 61>
| 62>                          ****END OF INPUT****

CARTESIAN COORDINATES (ANGSTROEM)
---------------------------------
  Mo     0.000368   -0.000951   -0.664236
  C      1.186218    1.095679   -1.824431
  C     -1.543342    0.475450   -1.823831
  C      0.358600   -1.578355   -1.821075
  O      0.584740   -2.492846   -2.512436
  O      1.864319    1.747384   -2.517871
  O     -2.447606    0.735637   -2.516687
  P      1.980785   -0.729448    0.688588
  P     -1.623545   -1.348294    0.688464
  P     -0.357708    2.080403    0.685812
  C     -1.633250    3.223236    0.009653
  H     -1.705660    4.145387    0.596929
  H     -2.603028    2.718106    0.000627
  H     -1.373511    3.465952   -1.024212
  C     -0.858884    2.043709    2.465539
  H     -1.825180    1.541749    2.565977
  H     -0.943418    3.056285    2.875390
  H     -0.120247    1.484663    3.045786
  C      1.092608    3.215640    0.782943
  H      0.848407    4.138527    1.320517
  H      1.418994    3.459201   -0.231490
  H      1.920240    2.713456    1.291867
  C     -1.984130   -3.020964    0.008508
  H     -2.747676   -3.543086    0.595776
  H     -1.064326   -3.612180   -0.003877
  H     -2.325682   -2.913010   -1.024422
  C     -1.336917   -1.769970    2.466070
  H     -2.171293   -2.349509    2.876428
  H     -1.219304   -0.852646    3.048800
  H     -0.419591   -2.357379    2.562237
  C     -3.329045   -0.653966    0.792955
  H     -4.006858   -1.325859    1.330979
  H     -3.705797   -0.489375   -0.219919
  H     -3.303097    0.312486    1.304224
  C      3.608641   -0.198569    0.011444
  H      4.443241   -0.596886    0.599054
  H      3.657034    0.893802    0.001026
  H      3.688452   -0.546249   -1.021993
  C      2.199807   -0.272940    2.467201
  H      3.119209   -0.704894    2.877753
  H      1.346620   -0.631939    3.048604
  H      2.248134    0.815142    2.564989
  C      2.238042   -2.552971    0.789569
  H      3.157648   -2.802349    1.330381
  H      2.288935   -2.958854   -0.224143
  H      1.387609   -3.017788    1.296348

 Total Charge           Charge          ....    0
 Multiplicity           Mult            ....    1
 Number of Electrons    NEL             ....  182
 Basis Dimension        Dim             .... 1223

ORBITAL ENERGIES
----------------

  NO   OCC          E(Eh)            E(eV)
   0   2.0000     -77.093867     -2097.8308
   1   2.0000     -77.093859     -2097.8306
   2   2.0000     -77.093837     -2097.8300
   3   2.0000     -19.239866      -523.5434
   4   2.0000     -19.239862      -523.5433
   5   2.0000     -19.239851      -523.5430
   6   2.0000     -10.346531      -281.5434
   7   2.0000     -10.346523      -281.5432
   8   2.0000     -10.346516      -281.5430
   9   2.0000     -10.283125      -279.8181
  10   2.0000     -10.283119      -279.8179
  11   2.0000     -10.283111      -279.8177
  12   2.0000     -10.277150      -279.6555
  13   2.0000     -10.277135      -279.6551
  14   2.0000     -10.277105      -279.6543
  15   2.0000     -10.273883      -279.5666
  16   2.0000     -10.273848      -279.5656
  17   2.0000     -10.273834      -279.5652
  18   2.0000      -6.672459      -181.5668
  19   2.0000      -6.672451      -181.5666
  20   2.0000      -6.672436      -181.5662
  21   2.0000      -4.826452      -131.3344
  22   2.0000      -4.826445      -131.3342
  23   2.0000      -4.826424      -131.3337
  24   2.0000      -4.826201      -131.3276
  25   2.0000      -4.826188      -131.3272
  26   2.0000      -4.826171      -131.3268
  27   2.0000      -4.821935      -131.2115
  28   2.0000      -4.821932      -131.2114
  29   2.0000      -4.821921      -131.2111
  30   2.0000      -2.617156       -71.2164
  31   2.0000      -1.620114       -44.0855
  32   2.0000      -1.620106       -44.0853
  33   2.0000      -1.619566       -44.0706
  34   2.0000      -1.207412       -32.8554
  35   2.0000      -1.206726       -32.8367
  36   2.0000      -1.206717       -32.8364
  37   2.0000      -0.917758       -24.9735
  38   2.0000      -0.911610       -24.8062
  39   2.0000      -0.911606       -24.8061
  40   2.0000      -0.839388       -22.8409
  41   2.0000      -0.835932       -22.7469
  42   2.0000      -0.835880       -22.7455
  43   2.0000      -0.831188       -22.6178
  44   2.0000      -0.831152       -22.6168
  45   2.0000      -0.829800       -22.5800
  46   2.0000      -0.684774       -18.6337
  47   2.0000      -0.667016       -18.1504
  48   2.0000      -0.667006       -18.1502
  49   2.0000      -0.648713       -17.6524
  50   2.0000      -0.638203       -17.3664
  51   2.0000      -0.638194       -17.3661
  52   2.0000      -0.583895       -15.8886
  53   2.0000      -0.571980       -15.5644
  54   2.0000      -0.571909       -15.5624
  55   2.0000      -0.559191       -15.2164
  56   2.0000      -0.559136       -15.2149
  57   2.0000      -0.557073       -15.1587
  58   2.0000      -0.551779       -15.0147
  59   2.0000      -0.547641       -14.9021
  60   2.0000      -0.547636       -14.9019
  61   2.0000      -0.535543       -14.5729
  62   2.0000      -0.533475       -14.5166
  63   2.0000      -0.533400       -14.5145
  64   2.0000      -0.529510       -14.4087
  65   2.0000      -0.526065       -14.3150
  66   2.0000      -0.526012       -14.3135
  67   2.0000      -0.521411       -14.1883
  68   2.0000      -0.515058       -14.0154
  69   2.0000      -0.515003       -14.0140
  70   2.0000      -0.512783       -13.9535
  71   2.0000      -0.508841       -13.8463
  72   2.0000      -0.508803       -13.8452
  73   2.0000      -0.506288       -13.7768
  74   2.0000      -0.503613       -13.7040
  75   2.0000      -0.501863       -13.6564
  76   2.0000      -0.501796       -13.6546
  77   2.0000      -0.495270       -13.4770
  78   2.0000      -0.495260       -13.4767
  79   2.0000      -0.450408       -12.2562
  80   2.0000      -0.448392       -12.2014
  81   2.0000      -0.448359       -12.2005
  82   2.0000      -0.440397       -11.9838
  83   2.0000      -0.440384       -11.9834
  84   2.0000      -0.438830       -11.9412
  85   2.0000      -0.379685       -10.3318
  86   2.0000      -0.364722        -9.9246
  87   2.0000      -0.364684        -9.9235
  88   2.0000      -0.264875        -7.2076
  89   2.0000      -0.264869        -7.2074
  90   2.0000      -0.263276        -7.1641
  91   0.0000       0.038952         1.0599
  92   0.0000       0.056325         1.5327
  93   0.0000       0.056338         1.5330
  94   0.0000       0.062470         1.6999
  95   0.0000       0.067741         1.8433

MULLIKEN ATOMIC CHARGES
-----------------------
   0 Mo:   -1.139382
   1 C :    0.253391
   2 C :    0.257526
   3 C :    0.252429
   4 O :   -0.343598
   5 O :   -0.343670
   6 O :   -0.344007
   7 P :    1.114244
   8 P :    1.105133
   9 P :    1.104094
  10 C :   -0.543452
  11 H :    0.171770
  12 H :    0.068342
  13 H :    0.046503
  14 C :   -0.416591
  15 H :    0.043883
  16 H :    0.161147
  17 H :    0.011193
  18 C :   -0.383628
  19 H :    0.151294
  20 H :    0.047645
  21 H :    0.005470
  22 C :   -0.543058
  23 H :    0.171377
  24 H :    0.068855
  25 H :    0.047340
  26 C :   -0.422357
  27 H :    0.160205
  28 H :    0.011689
  29 H :    0.045837
  30 C :   -0.382851
  31 H :    0.150360
  32 H :    0.048176
  33 H :    0.004574
  34 C :   -0.542368
  35 H :    0.170628
  36 H :    0.068170
  37 H :    0.047257
  38 C :   -0.421769
  39 H :    0.160175
  40 H :    0.012641
  41 H :    0.045984
  42 C :   -0.383219
  43 H :    0.149452
  44 H :    0.048117
  45 H :    0.005046
Sum of atomic charges:   -0.0000000

LOEWDIN ATOMIC CHARGES
----------------------
   0 Mo:    0.049638
   1 C :   -0.306731
   2 C :   -0.306809
   3 C :   -0.306754
   4 O :    0.034856
   5 O :    0.034883
   6 O :    0.034823
   7 P :    0.840956
   8 P :    0.840853
   9 P :    0.840922
  10 C :   -0.022344
  11 H :   -0.048751
  12 H :   -0.056692
  13 H :   -0.046707
  14 C :   -0.023776
  15 H :   -0.073689
  16 H :   -0.047474
  17 H :   -0.072605
  18 C :   -0.018094
  19 H :   -0.047480
  20 H :   -0.056862
  21 H :   -0.071055
  22 C :   -0.022412
  23 H :   -0.048782
  24 H :   -0.056535
  25 H :   -0.046710
  26 C :   -0.023934
  27 H :   -0.047513
  28 H :   -0.072343
  29 H :   -0.073584
  30 C :   -0.018009
  31 H :   -0.047443
  32 H :   -0.056829
  33 H :   -0.071439
  34 C :   -0.022429
  35 H :   -0.048749
  36 H :   -0.056639
  37 H :   -0.046747
  38 C :   -0.024008
  39 H :   -0.047524
  40 H :   -0.072449
  41 H :   -0.073518
  42 C :   -0.018061
  43 H :   -0.047474
  44 H :   -0.056807
  45 H :   -0.071171

  Mayer bond orders larger than 0.100000
B(  0-Mo,  1-C ) :   1.4861 B(  0-Mo,  2-C ) :   1.4925 B(  0-Mo,  3-C ) :   1.4861
B(  0-Mo,  7-P ) :   0.5255 B(  0-Mo,  8-P ) :   0.5215 B(  0-Mo,  9-P ) :   0.5214
B(  0-Mo, 10-C ) :   0.1085 B(  0-Mo, 22-C ) :   0.1075 B(  0-Mo, 34-C ) :   0.1077
B(  1-C ,  2-C ) :  -0.1332 B(  1-C ,  3-C ) :  -0.1325 B(  1-C ,  5-O ) :   1.9833
B(  2-C ,  3-C ) :  -0.1322 B(  2-C ,  6-O ) :   1.9832 B(  3-C ,  4-O ) :   1.9831
B(  7-P ,  8-P ) :   0.1574 B(  7-P ,  9-P ) :   0.1585 B(  7-P , 34-C ) :   0.7023
B(  7-P , 38-C ) :   0.8316 B(  7-P , 42-C ) :   0.7427 B(  8-P ,  9-P ) :   0.1627
B(  8-P , 22-C ) :   0.7019 B(  8-P , 26-C ) :   0.8346 B(  8-P , 30-C ) :   0.7420
B(  9-P , 10-C ) :   0.7023 B(  9-P , 14-C ) :   0.8337 B(  9-P , 18-C ) :   0.7434
B( 10-C , 11-H ) :   0.9322 B( 10-C , 12-H ) :   0.9762 B( 10-C , 13-H ) :   1.0098
B( 10-C , 14-C ) :   0.1248 B( 10-C , 18-C ) :   0.1442 B( 14-C , 15-H ) :   0.9583
B( 14-C , 16-H ) :   0.9410 B( 14-C , 17-H ) :   1.0018 B( 14-C , 18-C ) :   0.1445
B( 18-C , 19-H ) :   0.9524 B( 18-C , 20-H ) :   0.9538 B( 18-C , 21-H ) :   0.9834
B( 22-C , 23-H ) :   0.9325 B( 22-C , 24-H ) :   0.9755 B( 22-C , 25-H ) :   1.0092
B( 22-C , 26-C ) :   0.1247 B( 22-C , 30-C ) :   0.1445 B( 26-C , 27-H ) :   0.9430
B( 26-C , 28-H ) :   1.0023 B( 26-C , 29-H ) :   0.9581 B( 26-C , 30-C ) :   0.1448
B( 30-C , 31-H ) :   0.9537 B( 30-C , 32-H ) :   0.9540 B( 30-C , 33-H ) :   0.9827
B( 34-C , 35-H ) :   0.9331 B( 34-C , 36-H ) :   0.9756 B( 34-C , 37-H ) :   1.0079
B( 34-C , 38-C ) :   0.1251 B( 34-C , 42-C ) :   0.1447 B( 38-C , 39-H ) :   0.9432
B( 38-C , 40-H ) :   1.0020 B( 38-C , 41-H ) :   0.9591 B( 38-C , 42-C ) :   0.1444
B( 42-C , 43-H ) :   0.9542 B( 42-C , 44-H ) :   0.9535 B( 42-C , 45-H ) :   0.9827

FINAL SINGLE POINT ENERGY     -1791.612051303804

DIPOLE MOMENT
-------------
                                X             Y             Z
Electronic contribution:      0.03070      -0.08907     -63.14493
Nuclear contribution   :     -0.03125       0.09337      66.31953
                        -----------------------------------------
Total Dipole Moment    :     -0.00055       0.00431       3.17460
                        -----------------------------------------
Magnitude (a.u.)       :      3.17460
Magnitude (Debye)      :      8.06920

Rotational constants in cm-1:     0.008677     0.008672     0.007610
Rotational constants in MHz :   260.126059   259.983430   228.154635

                             ****ORCA TERMINATED NORMALLY****
TOTAL RUN TIME: 0 days 0 hours 37 minutes 18 seconds 852 msec
