                         Program Version 4.2.0 -  RELEASE  -
|  1> #
|  2> # MOR31_pr20 wB97X-V/Def2-TZVPPD
|  3> #
|  4> ! wb97x-v def2-tzvppd def2/jk grid4 nofinalgrid
|  5>
|  6> *xyz 0 1
|  7> Ir       0.002477   -0.015286    0.083430
|  8> P       -2.348177   -0.226580   -0.058132
|  9> C       -2.872702   -1.550327   -1.188803
| 10> C       -3.160695   -0.601199    1.533451
| 11> H       -2.768983   -1.545856    1.920385
| 12> H       -3.035053    2.092169    0.038161
| 13> H       -4.244853   -0.682241    1.406776
| 14> H       -2.786362    1.529395   -1.637172
| 15> H       -3.965660   -1.602102   -1.229325
| 16> H       -2.934726    0.195116    2.248250
| 17> C       -3.202684    1.268779   -0.660861
| 18> H       -2.461852   -1.335119   -2.177902
| 19> H       -4.277134    1.082313   -0.755690
| 20> H       -2.448990   -2.494963   -0.841403
| 21> P        2.371733   -0.033051   -0.048079
| 22> C        3.118147   -1.146577    1.190097
| 23> C        2.988864   -0.646513   -1.645491
| 24> H        2.993037    2.252530   -0.586719
| 25> H        4.326367    1.397945    0.228668
| 26> H        2.927925    1.991387    1.168046
| 27> C        3.242996    1.555288    0.216058
| 28> H        4.081131   -0.719105   -1.623165
| 29> H        2.539412   -1.627874   -1.816909
| 30> H        4.198017   -1.226939    1.030710
| 31> H        2.645385   -2.126625    1.084325
| 32> H        2.665924    0.027013   -2.441495
| 33> H        2.928294   -0.762471    2.196181
| 34> C        0.041875   -0.376924    1.901008
| 35> O        0.060916   -0.624538    3.028225
| 36> Cl       0.274891   -2.517433   -0.343637
| 37> C       -0.190594    2.003978    0.494123
| 38> O       -0.529496    2.399253    1.599170
| 39> Cl      -0.136178    0.364638   -2.291447
| 40> C        0.062980    3.028488   -0.607541
| 41> H        0.210382    4.010245   -0.149220
| 42> H       -0.815546    3.056386   -1.260585
| 43> H        0.900599    2.750150   -1.247819
| 44> *
| 45>
| 46> %maxcore 5000
| 47>
| 48> %pal
| 49> nprocs = 24
| 50> end
| 51>
| 52>
| 53>                          ****END OF INPUT****

CARTESIAN COORDINATES (ANGSTROEM)
---------------------------------
  Ir     0.002477   -0.015286    0.083430
  P     -2.348177   -0.226580   -0.058132
  C     -2.872702   -1.550327   -1.188803
  C     -3.160695   -0.601199    1.533451
  H     -2.768983   -1.545856    1.920385
  H     -3.035053    2.092169    0.038161
  H     -4.244853   -0.682241    1.406776
  H     -2.786362    1.529395   -1.637172
  H     -3.965660   -1.602102   -1.229325
  H     -2.934726    0.195116    2.248250
  C     -3.202684    1.268779   -0.660861
  H     -2.461852   -1.335119   -2.177902
  H     -4.277134    1.082313   -0.755690
  H     -2.448990   -2.494963   -0.841403
  P      2.371733   -0.033051   -0.048079
  C      3.118147   -1.146577    1.190097
  C      2.988864   -0.646513   -1.645491
  H      2.993037    2.252530   -0.586719
  H      4.326367    1.397945    0.228668
  H      2.927925    1.991387    1.168046
  C      3.242996    1.555288    0.216058
  H      4.081131   -0.719105   -1.623165
  H      2.539412   -1.627874   -1.816909
  H      4.198017   -1.226939    1.030710
  H      2.645385   -2.126625    1.084325
  H      2.665924    0.027013   -2.441495
  H      2.928294   -0.762471    2.196181
  C      0.041875   -0.376924    1.901008
  O      0.060916   -0.624538    3.028225
  Cl     0.274891   -2.517433   -0.343637
  C     -0.190594    2.003978    0.494123
  O     -0.529496    2.399253    1.599170
  Cl    -0.136178    0.364638   -2.291447
  C      0.062980    3.028488   -0.607541
  H      0.210382    4.010245   -0.149220
  H     -0.815546    3.056386   -1.260585
  H      0.900599    2.750150   -1.247819

 Total Charge           Charge          ....    0
 Multiplicity           Mult            ....    1
 Number of Electrons    NEL             ....  172
 Basis Dimension        Dim             .... 1027

ORBITAL ENERGIES
----------------

  NO   OCC          E(Eh)            E(eV)
   0   2.0000    -101.452813     -2760.6714
   1   2.0000    -101.432820     -2760.1273
   2   2.0000     -77.126564     -2098.7205
   3   2.0000     -77.126235     -2098.7116
   4   2.0000     -19.306513      -525.3569
   5   2.0000     -19.198442      -522.4162
   6   2.0000     -10.422546      -283.6119
   7   2.0000     -10.362843      -281.9873
   8   2.0000     -10.296571      -280.1840
   9   2.0000     -10.293770      -280.1077
  10   2.0000     -10.290380      -280.0155
  11   2.0000     -10.288723      -279.9704
  12   2.0000     -10.281074      -279.7622
  13   2.0000     -10.279677      -279.7242
  14   2.0000     -10.266858      -279.3754
  15   2.0000      -9.493208      -258.3233
  16   2.0000      -9.472591      -257.7623
  17   2.0000      -7.245414      -197.1577
  18   2.0000      -7.240593      -197.0265
  19   2.0000      -7.240316      -197.0190
  20   2.0000      -7.224374      -196.5852
  21   2.0000      -7.220233      -196.4725
  22   2.0000      -7.220031      -196.4670
  23   2.0000      -6.705406      -182.4634
  24   2.0000      -6.705111      -182.4553
  25   2.0000      -4.858975      -132.2194
  26   2.0000      -4.858632      -132.2101
  27   2.0000      -4.858506      -132.2067
  28   2.0000      -4.858194      -132.1982
  29   2.0000      -4.856223      -132.1445
  30   2.0000      -4.855997      -132.1384
  31   2.0000      -3.865091      -105.1745
  32   2.0000      -2.209955       -60.1359
  33   2.0000      -2.198726       -59.8304
  34   2.0000      -2.192262       -59.6545
  35   2.0000      -1.277203       -34.7544
  36   2.0000      -1.164382       -31.6844
  37   2.0000      -0.936404       -25.4808
  38   2.0000      -0.932680       -25.3795
  39   2.0000      -0.885682       -24.1006
  40   2.0000      -0.864097       -23.5133
  41   2.0000      -0.857672       -23.3384
  42   2.0000      -0.851161       -23.1613
  43   2.0000      -0.849176       -23.1072
  44   2.0000      -0.843740       -22.9593
  45   2.0000      -0.841527       -22.8991
  46   2.0000      -0.725587       -19.7442
  47   2.0000      -0.696348       -18.9486
  48   2.0000      -0.682964       -18.5844
  49   2.0000      -0.657441       -17.8899
  50   2.0000      -0.621363       -16.9082
  51   2.0000      -0.603856       -16.4318
  52   2.0000      -0.595494       -16.2042
  53   2.0000      -0.586592       -15.9620
  54   2.0000      -0.583148       -15.8683
  55   2.0000      -0.570858       -15.5338
  56   2.0000      -0.568538       -15.4707
  57   2.0000      -0.565654       -15.3922
  58   2.0000      -0.562411       -15.3040
  59   2.0000      -0.559952       -15.2371
  60   2.0000      -0.550995       -14.9933
  61   2.0000      -0.540468       -14.7069
  62   2.0000      -0.536952       -14.6112
  63   2.0000      -0.533799       -14.5254
  64   2.0000      -0.532717       -14.4960
  65   2.0000      -0.525296       -14.2940
  66   2.0000      -0.515788       -14.0353
  67   2.0000      -0.514755       -14.0072
  68   2.0000      -0.490607       -13.3501
  69   2.0000      -0.485092       -13.2000
  70   2.0000      -0.475564       -12.9407
  71   2.0000      -0.473476       -12.8839
  72   2.0000      -0.466267       -12.6878
  73   2.0000      -0.464034       -12.6270
  74   2.0000      -0.459580       -12.5058
  75   2.0000      -0.434986       -11.8366
  76   2.0000      -0.428796       -11.6681
  77   2.0000      -0.419422       -11.4131
  78   2.0000      -0.411493       -11.1973
  79   2.0000      -0.409439       -11.1414
  80   2.0000      -0.378892       -10.3102
  81   2.0000      -0.358403        -9.7526
  82   2.0000      -0.350768        -9.5449
  83   2.0000      -0.345375        -9.3981
  84   2.0000      -0.343007        -9.3337
  85   2.0000      -0.314138        -8.5481
  86   0.0000       0.039440         1.0732
  87   0.0000       0.039829         1.0838
  88   0.0000       0.041393         1.1263
  89   0.0000       0.045642         1.2420
  90   0.0000       0.060263         1.6398

MULLIKEN ATOMIC CHARGES
-----------------------
   0 Ir:    1.238826
   1 P :    0.526931
   2 C :   -0.419728
   3 C :   -0.396017
   4 H :    0.077016
   5 H :    0.049584
   6 H :    0.163471
   7 H :    0.061627
   8 H :    0.179528
   9 H :    0.061607
  10 C :   -0.333830
  11 H :    0.061349
  12 H :    0.169411
  13 H :    0.097177
  14 P :    0.399678
  15 C :   -0.397572
  16 C :   -0.365603
  17 H :    0.073736
  18 H :    0.161474
  19 H :    0.052753
  20 C :   -0.326725
  21 H :    0.181888
  22 H :    0.047894
  23 H :    0.173856
  24 H :    0.095830
  25 H :    0.090310
  26 H :    0.048659
  27 C :    0.229956
  28 O :   -0.335256
  29 Cl:   -0.607786
  30 C :    0.354042
  31 O :   -0.531615
  32 Cl:   -0.576247
  33 C :   -0.456759
  34 H :    0.041732
  35 H :    0.073767
  36 H :    0.035035
Sum of atomic charges:   -0.0000000

LOEWDIN ATOMIC CHARGES
----------------------
   0 Ir:    0.503036
   1 P :    0.772868
   2 C :   -0.036694
   3 C :    0.005143
   4 H :   -0.041125
   5 H :   -0.045663
   6 H :   -0.040352
   7 H :   -0.066603
   8 H :   -0.040538
   9 H :   -0.041667
  10 C :   -0.001759
  11 H :   -0.072138
  12 H :   -0.039833
  13 H :   -0.088573
  14 P :    0.768003
  15 C :   -0.015304
  16 C :   -0.039756
  17 H :   -0.055955
  18 H :   -0.040788
  19 H :   -0.039738
  20 C :    0.008230
  21 H :   -0.040424
  22 H :   -0.078640
  23 H :   -0.040469
  24 H :   -0.080640
  25 H :   -0.078619
  26 H :   -0.047776
  27 C :   -0.400778
  28 O :    0.131960
  29 Cl:   -0.107246
  30 C :   -0.552875
  31 O :   -0.037681
  32 Cl:    0.000220
  33 C :    0.087310
  34 H :   -0.005769
  35 H :   -0.033608
  36 H :   -0.065755

  Mayer bond orders larger than 0.100000
B(  0-Ir,  1-P ) :   0.4482 B(  0-Ir, 14-P ) :   0.5438 B(  0-Ir, 27-C ) :   0.8834
B(  0-Ir, 29-Cl) :   0.3226 B(  0-Ir, 30-C ) :   0.5947 B(  0-Ir, 32-Cl) :   0.2680
B(  0-Ir, 33-C ) :   0.1604 B(  1-P ,  2-C ) :   1.0038 B(  1-P ,  3-C ) :   0.8165
B(  1-P , 10-C ) :   0.8950 B(  1-P , 30-C ) :   0.1499 B(  1-P , 32-Cl) :   0.2474
B(  2-C ,  8-H ) :   0.9246 B(  2-C , 11-H ) :   0.9628 B(  2-C , 13-H ) :   0.9551
B(  3-C ,  4-H ) :   0.9793 B(  3-C ,  6-H ) :   0.9345 B(  3-C ,  9-H ) :   1.0027
B(  5-H , 10-C ) :   0.9902 B(  7-H , 10-C ) :   0.9886 B( 10-C , 12-H ) :   0.9234
B( 14-P , 15-C ) :   0.8656 B( 14-P , 16-C ) :   1.0331 B( 14-P , 20-C ) :   0.7970
B( 14-P , 29-Cl) :   0.2622 B( 14-P , 32-Cl) :   0.1749 B( 15-C , 23-H ) :   0.9257
B( 15-C , 24-H ) :   0.9940 B( 15-C , 26-H ) :   0.9846 B( 16-C , 21-H ) :   0.9250
B( 16-C , 22-H ) :   0.9664 B( 16-C , 25-H ) :   0.9572 B( 17-H , 20-C ) :   0.9732
B( 18-H , 20-C ) :   0.9338 B( 19-H , 20-C ) :   0.9892 B( 27-C , 28-O ) :   2.2188
B( 27-C , 30-C ) :   0.1779 B( 30-C , 31-O ) :   1.6987 B( 30-C , 33-C ) :   1.0274
B( 33-C , 34-H ) :   1.0722 B( 33-C , 35-H ) :   0.9457 B( 33-C , 36-H ) :   1.0192

FINAL SINGLE POINT ENERGY     -2213.629517770453

DIPOLE MOMENT
-------------
                                X             Y             Z
Electronic contribution:      0.17416      -7.76304      12.20685
Nuclear contribution   :     -0.04564       8.50954     -11.91616
                        -----------------------------------------
Total Dipole Moment    :      0.12852       0.74650       0.29068
                        -----------------------------------------
Magnitude (a.u.)       :      0.81134
Magnitude (Debye)      :      2.06226

Rotational constants in cm-1:     0.013559     0.009254     0.008806
Rotational constants in MHz :   406.483484   277.425577   264.007304

                             ****ORCA TERMINATED NORMALLY****
TOTAL RUN TIME: 0 days 0 hours 23 minutes 47 seconds 901 msec
