                         Program Version 4.2.0 -  RELEASE  -
|  1> #
|  2> # MOR36_pr37 wB97X-V/Def2-TZVPPD
|  3> #
|  4> ! wb97x-v def2-tzvppd def2/jk grid4 nofinalgrid
|  5>
|  6> *xyz 0 1
|  7> Mo       0.000106   -0.000070   -0.471377
|  8> C        0.514398   -1.514915   -1.646050
|  9> C        1.055079    1.202350   -1.646249
| 10> C       -1.568474    0.311983   -1.646660
| 11> O       -2.484520    0.493946   -2.346732
| 12> O        0.814970   -2.399453   -2.345765
| 13> O        1.670957    1.904692   -2.346079
| 14> N       -1.133555   -1.291008    0.811792
| 15> N       -0.551576    1.627166    0.811584
| 16> N        1.684684   -0.335905    0.812231
| 17> C        2.623715   -0.523292    1.470917
| 18> C       -0.858944    2.534303    1.469905
| 19> C       -1.765652   -2.010491    1.470244
| 20> C       -2.579903   -2.936733    2.238371
| 21> H       -3.631237   -2.631169    2.207389
| 22> H       -2.252645   -2.962558    3.282907
| 23> H       -2.496617   -3.945451    1.819577
| 24> C       -1.254401    3.702555    2.237857
| 25> H       -0.464690    4.460832    2.206160
| 26> H       -1.439592    3.432273    3.282594
| 27> H       -2.170183    4.133961    1.819442
| 28> C        3.832875   -0.764956    2.239344
| 29> H        4.094105   -1.828181    2.208653
| 30> H        3.691346   -0.468421    3.283785
| 31> H        4.664793   -0.188419    1.820591
| 32> *
| 33>
| 34> %maxcore 5000
| 35>
| 36> %pal
| 37> nprocs = 24
| 38> end
| 39>
| 40>
| 41>                          ****END OF INPUT****

CARTESIAN COORDINATES (ANGSTROEM)
---------------------------------
  Mo     0.000106   -0.000070   -0.471377
  C      0.514398   -1.514915   -1.646050
  C      1.055079    1.202350   -1.646249
  C     -1.568474    0.311983   -1.646660
  O     -2.484520    0.493946   -2.346732
  O      0.814970   -2.399453   -2.345765
  O      1.670957    1.904692   -2.346079
  N     -1.133555   -1.291008    0.811792
  N     -0.551576    1.627166    0.811584
  N      1.684684   -0.335905    0.812231
  C      2.623715   -0.523292    1.470917
  C     -0.858944    2.534303    1.469905
  C     -1.765652   -2.010491    1.470244
  C     -2.579903   -2.936733    2.238371
  H     -3.631237   -2.631169    2.207389
  H     -2.252645   -2.962558    3.282907
  H     -2.496617   -3.945451    1.819577
  C     -1.254401    3.702555    2.237857
  H     -0.464690    4.460832    2.206160
  H     -1.439592    3.432273    3.282594
  H     -2.170183    4.133961    1.819442
  C      3.832875   -0.764956    2.239344
  H      4.094105   -1.828181    2.208653
  H      3.691346   -0.468421    3.283785
  H      4.664793   -0.188419    1.820591

 Total Charge           Charge          ....    0
 Multiplicity           Mult            ....    1
 Number of Electrons    NEL             ....  122
 Basis Dimension        Dim             ....  773

ORBITAL ENERGIES
----------------

  NO   OCC          E(Eh)            E(eV)
   0   2.0000     -19.213582      -522.8281
   1   2.0000     -19.213580      -522.8281
   2   2.0000     -19.213577      -522.8280
   3   2.0000     -14.446387      -393.1062
   4   2.0000     -14.446385      -393.1061
   5   2.0000     -14.446378      -393.1059
   6   2.0000     -10.337407      -281.2951
   7   2.0000     -10.337407      -281.2951
   8   2.0000     -10.337406      -281.2951
   9   2.0000     -10.337069      -281.2860
  10   2.0000     -10.337069      -281.2859
  11   2.0000     -10.337069      -281.2859
  12   2.0000     -10.317003      -280.7399
  13   2.0000     -10.316993      -280.7397
  14   2.0000     -10.316992      -280.7396
  15   2.0000      -2.601108       -70.7797
  16   2.0000      -1.607169       -43.7333
  17   2.0000      -1.603150       -43.6239
  18   2.0000      -1.603149       -43.6239
  19   2.0000      -1.181506       -32.1504
  20   2.0000      -1.180760       -32.1301
  21   2.0000      -1.180759       -32.1301
  22   2.0000      -1.066404       -29.0183
  23   2.0000      -1.063744       -28.9460
  24   2.0000      -1.063744       -28.9459
  25   2.0000      -0.924864       -25.1668
  26   2.0000      -0.924325       -25.1522
  27   2.0000      -0.924325       -25.1522
  28   2.0000      -0.661215       -17.9926
  29   2.0000      -0.651309       -17.7230
  30   2.0000      -0.651309       -17.7230
  31   2.0000      -0.629545       -17.1308
  32   2.0000      -0.612635       -16.6706
  33   2.0000      -0.612633       -16.6706
  34   2.0000      -0.593098       -16.1390
  35   2.0000      -0.592343       -16.1185
  36   2.0000      -0.592342       -16.1184
  37   2.0000      -0.591245       -16.0886
  38   2.0000      -0.591244       -16.0886
  39   2.0000      -0.590672       -16.0730
  40   2.0000      -0.574407       -15.6304
  41   2.0000      -0.557177       -15.1616
  42   2.0000      -0.557177       -15.1616
  43   2.0000      -0.509555       -13.8657
  44   2.0000      -0.506564       -13.7843
  45   2.0000      -0.506563       -13.7843
  46   2.0000      -0.493950       -13.4411
  47   2.0000      -0.493949       -13.4410
  48   2.0000      -0.490800       -13.3554
  49   2.0000      -0.485497       -13.2110
  50   2.0000      -0.475381       -12.9358
  51   2.0000      -0.475380       -12.9357
  52   2.0000      -0.462688       -12.5904
  53   2.0000      -0.462687       -12.5903
  54   2.0000      -0.456919       -12.4334
  55   2.0000      -0.456364       -12.4183
  56   2.0000      -0.447084       -12.1658
  57   2.0000      -0.447083       -12.1658
  58   2.0000      -0.234047        -6.3688
  59   2.0000      -0.230610        -6.2752
  60   2.0000      -0.230609        -6.2752
  61   0.0000       0.030329         0.8253
  62   0.0000       0.045479         1.2376
  63   0.0000       0.045481         1.2376
  64   0.0000       0.073266         1.9937
  65   0.0000       0.073267         1.9937

MULLIKEN ATOMIC CHARGES
-----------------------
   0 Mo:   -0.736617
   1 C :    0.336019
   2 C :    0.335948
   3 C :    0.335848
   4 O :   -0.315389
   5 O :   -0.315492
   6 O :   -0.315452
   7 N :    0.203037
   8 N :    0.203090
   9 N :    0.203312
  10 C :   -0.020530
  11 C :   -0.020782
  12 C :   -0.020173
  13 C :   -0.240347
  14 H :    0.094823
  15 H :    0.092708
  16 H :    0.095158
  17 C :   -0.239522
  18 H :    0.094319
  19 H :    0.092458
  20 H :    0.095382
  21 C :   -0.240754
  22 H :    0.094912
  23 H :    0.092739
  24 H :    0.095303
Sum of atomic charges:   -0.0000000

LOEWDIN ATOMIC CHARGES
----------------------
   0 Mo:    0.386639
   1 C :   -0.268031
   2 C :   -0.268032
   3 C :   -0.268037
   4 O :    0.021563
   5 O :    0.021569
   6 O :    0.021568
   7 N :    0.071795
   8 N :    0.071797
   9 N :    0.071793
  10 C :   -0.110661
  11 C :   -0.110657
  12 C :   -0.110656
  13 C :    0.153715
  14 H :    0.001688
  15 H :   -0.001994
  16 H :    0.003040
  17 C :    0.153723
  18 H :    0.001686
  19 H :   -0.001996
  20 H :    0.003039
  21 C :    0.153712
  22 H :    0.001690
  23 H :   -0.001992
  24 H :    0.003042

  Mayer bond orders larger than 0.100000
B(  0-Mo,  1-C ) :   1.4130 B(  0-Mo,  2-C ) :   1.4130 B(  0-Mo,  3-C ) :   1.4127
B(  0-Mo,  7-N ) :   0.6150 B(  0-Mo,  8-N ) :   0.6149 B(  0-Mo,  9-N ) :   0.6153
B(  1-C ,  5-O ) :   1.9992 B(  2-C ,  6-O ) :   1.9991 B(  3-C ,  4-O ) :   1.9991
B(  7-N , 12-C ) :   2.7175 B(  8-N , 11-C ) :   2.7177 B(  9-N , 10-C ) :   2.7179
B( 10-C , 21-C ) :   0.8022 B( 11-C , 17-C ) :   0.8029 B( 12-C , 13-C ) :   0.8022
B( 13-C , 14-H ) :   1.0020 B( 13-C , 15-H ) :   0.9954 B( 13-C , 16-H ) :   1.0049
B( 17-C , 18-H ) :   1.0019 B( 17-C , 19-H ) :   0.9954 B( 17-C , 20-H ) :   1.0046
B( 21-C , 22-H ) :   1.0019 B( 21-C , 23-H ) :   0.9955 B( 21-C , 24-H ) :   1.0048

FINAL SINGLE POINT ENERGY      -806.616001603643

DIPOLE MOMENT
-------------
                                X             Y             Z
Electronic contribution:      0.00898      -0.00578     -40.16589
Nuclear contribution   :     -0.01011       0.00649      45.69854
                        -----------------------------------------
Total Dipole Moment    :     -0.00113       0.00072       5.53266
                        -----------------------------------------
Magnitude (a.u.)       :      5.53266
Magnitude (Debye)      :     14.06290

Rotational constants in cm-1:     0.011429     0.011429     0.011227
Rotational constants in MHz :   342.640201   342.631727   336.586559

                             ****ORCA TERMINATED NORMALLY****
TOTAL RUN TIME: 0 days 0 hours 5 minutes 56 seconds 488 msec
