                         Program Version 4.2.0 -  RELEASE  -
|  1> #
|  2> # MOR34_pr35 wB97X-V/Def2-TZVPPD
|  3> #
|  4> ! wb97x-v def2-tzvppd def2/jk grid4 nofinalgrid
|  5>
|  6> *xyz 0 1
|  7> Ru       0.569145    0.005836    0.165179
|  8> Se      -1.577691    0.219302   -1.256403
|  9> P        2.150844   -0.339975    1.751510
| 10> P        1.960774    0.268717   -1.689611
| 11> P        0.209152    2.312844    0.427199
| 12> P        0.201777   -2.273734   -0.170115
| 13> C       -3.165297    0.017396   -0.190307
| 14> C       -4.394132    0.053132   -0.874133
| 15> C       -5.595730   -0.078160   -0.183035
| 16> C       -5.602894   -0.248979    1.204636
| 17> C       -4.386994   -0.285335    1.887322
| 18> C       -3.179536   -0.153593    1.200055
| 19> C        2.835775    1.024261    2.797241
| 20> C        3.776990   -1.134294    1.350685
| 21> C        1.582544   -1.410719    3.147602
| 22> C        1.189258    0.640725   -3.324662
| 23> C        3.233820    1.610023   -1.608962
| 24> C        3.088037   -1.102636   -2.218553
| 25> C       -1.285561    2.723129    1.411363
| 26> C        1.411100    3.483245    1.220886
| 27> C       -0.106458    3.317190   -1.091179
| 28> C       -1.203048   -2.960414    0.792609
| 29> C        1.495583   -3.557062    0.180127
| 30> C       -0.249251   -2.863510   -1.860160
| 31> H       -0.380046   -0.139952    1.501494
| 32> H       -4.399385    0.184833   -1.953205
| 33> H       -6.533440   -0.047821   -0.732848
| 34> H       -6.541373   -0.352173    1.741881
| 35> H       -4.372710   -0.417664    2.966984
| 36> H       -2.231572   -0.183831    1.730627
| 37> H        2.021868    1.525326    3.326216
| 38> H        3.360848    1.757391    2.181578
| 39> H        3.533951    0.611895    3.534364
| 40> H        4.357450   -0.458164    0.715432
| 41> H        3.629968   -2.070962    0.811827
| 42> H        4.349762   -1.333108    2.263576
| 43> H        0.778593   -0.879257    3.663997
| 44> H        2.395525   -1.623101    3.851423
| 45> H        1.170731   -2.350778    2.777081
| 46> H        1.942377    0.770617   -4.110078
| 47> H        0.580686    1.544719   -3.247034
| 48> H        0.519142   -0.181425   -3.592607
| 49> H        3.848415    1.640003   -2.515852
| 50> H        3.881269    1.436754   -0.744032
| 51> H        2.749674    2.580347   -1.477575
| 52> H        3.680607   -0.803573   -3.090502
| 53> H        2.506614   -1.989838   -2.479223
| 54> H        3.765021   -1.364235   -1.402566
| 55> H       -1.422862    3.807855    1.484184
| 56> H       -1.180491    2.295670    2.412101
| 57> H       -2.158099    2.270920    0.935224
| 58> H        1.060677    4.511234    1.077988
| 59> H        2.402787    3.383240    0.772277
| 60> H        1.491749    3.290644    2.291344
| 61> H       -0.430215    4.323980   -0.805953
| 62> H       -0.883917    2.832935   -1.685612
| 63> H        0.806667    3.401312   -1.686904
| 64> H       -1.338643   -4.028887    0.591012
| 65> H       -2.108817   -2.414477    0.518490
| 66> H       -1.024200   -2.804556    1.859563
| 67> H        1.083825   -4.556345    0.001539
| 68> H        1.848365   -3.505467    1.212021
| 69> H        2.350340   -3.408454   -0.485526
| 70> H       -0.446095   -3.940916   -1.837012
| 71> H        0.566038   -2.668527   -2.561627
| 72> H       -1.135395   -2.323383   -2.198214
| 73> *
| 74>
| 75> %maxcore 5000
| 76>
| 77> %pal
| 78> nprocs = 24
| 79> end
| 80>
| 81>
| 82>                          ****END OF INPUT****

CARTESIAN COORDINATES (ANGSTROEM)
---------------------------------
  Ru     0.569145    0.005836    0.165179
  Se    -1.577691    0.219302   -1.256403
  P      2.150844   -0.339975    1.751510
  P      1.960774    0.268717   -1.689611
  P      0.209152    2.312844    0.427199
  P      0.201777   -2.273734   -0.170115
  C     -3.165297    0.017396   -0.190307
  C     -4.394132    0.053132   -0.874133
  C     -5.595730   -0.078160   -0.183035
  C     -5.602894   -0.248979    1.204636
  C     -4.386994   -0.285335    1.887322
  C     -3.179536   -0.153593    1.200055
  C      2.835775    1.024261    2.797241
  C      3.776990   -1.134294    1.350685
  C      1.582544   -1.410719    3.147602
  C      1.189258    0.640725   -3.324662
  C      3.233820    1.610023   -1.608962
  C      3.088037   -1.102636   -2.218553
  C     -1.285561    2.723129    1.411363
  C      1.411100    3.483245    1.220886
  C     -0.106458    3.317190   -1.091179
  C     -1.203048   -2.960414    0.792609
  C      1.495583   -3.557062    0.180127
  C     -0.249251   -2.863510   -1.860160
  H     -0.380046   -0.139952    1.501494
  H     -4.399385    0.184833   -1.953205
  H     -6.533440   -0.047821   -0.732848
  H     -6.541373   -0.352173    1.741881
  H     -4.372710   -0.417664    2.966984
  H     -2.231572   -0.183831    1.730627
  H      2.021868    1.525326    3.326216
  H      3.360848    1.757391    2.181578
  H      3.533951    0.611895    3.534364
  H      4.357450   -0.458164    0.715432
  H      3.629968   -2.070962    0.811827
  H      4.349762   -1.333108    2.263576
  H      0.778593   -0.879257    3.663997
  H      2.395525   -1.623101    3.851423
  H      1.170731   -2.350778    2.777081
  H      1.942377    0.770617   -4.110078
  H      0.580686    1.544719   -3.247034
  H      0.519142   -0.181425   -3.592607
  H      3.848415    1.640003   -2.515852
  H      3.881269    1.436754   -0.744032
  H      2.749674    2.580347   -1.477575
  H      3.680607   -0.803573   -3.090502
  H      2.506614   -1.989838   -2.479223
  H      3.765021   -1.364235   -1.402566
  H     -1.422862    3.807855    1.484184
  H     -1.180491    2.295670    2.412101
  H     -2.158099    2.270920    0.935224
  H      1.060677    4.511234    1.077988
  H      2.402787    3.383240    0.772277
  H      1.491749    3.290644    2.291344
  H     -0.430215    4.323980   -0.805953
  H     -0.883917    2.832935   -1.685612
  H      0.806667    3.401312   -1.686904
  H     -1.338643   -4.028887    0.591012
  H     -2.108817   -2.414477    0.518490
  H     -1.024200   -2.804556    1.859563
  H      1.083825   -4.556345    0.001539
  H      1.848365   -3.505467    1.212021
  H      2.350340   -3.408454   -0.485526
  H     -0.446095   -3.940916   -1.837012
  H      0.566038   -2.668527   -2.561627
  H     -1.135395   -2.323383   -2.198214

 Total Charge           Charge          ....    0
 Multiplicity           Mult            ....    1
 Number of Electrons    NEL             ....  260
 Basis Dimension        Dim             .... 1685

ORBITAL ENERGIES
----------------

  NO   OCC          E(Eh)            E(eV)
   0   2.0000    -453.628479    -12343.8585
   1   2.0000     -77.094823     -2097.8568
   2   2.0000     -77.088198     -2097.6765
   3   2.0000     -77.086932     -2097.6421
   4   2.0000     -77.084556     -2097.5774
   5   2.0000     -58.031896     -1579.1282
   6   2.0000     -52.075412     -1417.0440
   7   2.0000     -52.073428     -1416.9900
   8   2.0000     -52.072242     -1416.9577
   9   2.0000     -10.274819      -279.5920
  10   2.0000     -10.273385      -279.5530
  11   2.0000     -10.273347      -279.5520
  12   2.0000     -10.271799      -279.5099
  13   2.0000     -10.271306      -279.4965
  14   2.0000     -10.269902      -279.4582
  15   2.0000     -10.267837      -279.4021
  16   2.0000     -10.266261      -279.3592
  17   2.0000     -10.263001      -279.2705
  18   2.0000     -10.257055      -279.1087
  19   2.0000     -10.256607      -279.0965
  20   2.0000     -10.255486      -279.0660
  21   2.0000     -10.254136      -279.0292
  22   2.0000     -10.253883      -279.0223
  23   2.0000     -10.253034      -278.9992
  24   2.0000     -10.250033      -278.9176
  25   2.0000     -10.249000      -278.8895
  26   2.0000     -10.243966      -278.7525
  27   2.0000      -7.844729      -213.4659
  28   2.0000      -6.671212      -181.5329
  29   2.0000      -6.665579      -181.3796
  30   2.0000      -6.664224      -181.3427
  31   2.0000      -6.661897      -181.2794
  32   2.0000      -5.791297      -157.5892
  33   2.0000      -5.784569      -157.4061
  34   2.0000      -5.780810      -157.3038
  35   2.0000      -4.825347      -131.3044
  36   2.0000      -4.825148      -131.2990
  37   2.0000      -4.820967      -131.1852
  38   2.0000      -4.819691      -131.1505
  39   2.0000      -4.819426      -131.1433
  40   2.0000      -4.818456      -131.1168
  41   2.0000      -4.817805      -131.0992
  42   2.0000      -4.816106      -131.0529
  43   2.0000      -4.815489      -131.0361
  44   2.0000      -4.815133      -131.0264
  45   2.0000      -4.814023      -130.9962
  46   2.0000      -4.811679      -130.9324
  47   2.0000      -3.090351       -84.0927
  48   2.0000      -2.150019       -58.5050
  49   2.0000      -2.148528       -58.4644
  50   2.0000      -2.145440       -58.3804
  51   2.0000      -2.140055       -58.2339
  52   2.0000      -2.139803       -58.2270
  53   2.0000      -1.937031       -52.7093
  54   2.0000      -1.935292       -52.6620
  55   2.0000      -1.931398       -52.5560
  56   2.0000      -0.967191       -26.3186
  57   2.0000      -0.913806       -24.8659
  58   2.0000      -0.905559       -24.6415
  59   2.0000      -0.900230       -24.4965
  60   2.0000      -0.897792       -24.4301
  61   2.0000      -0.862714       -23.4757
  62   2.0000      -0.853231       -23.2176
  63   2.0000      -0.832767       -22.6607
  64   2.0000      -0.828613       -22.5477
  65   2.0000      -0.828431       -22.5428
  66   2.0000      -0.823574       -22.4106
  67   2.0000      -0.820276       -22.3208
  68   2.0000      -0.814982       -22.1768
  69   2.0000      -0.813377       -22.1331
  70   2.0000      -0.812377       -22.1059
  71   2.0000      -0.751101       -20.4385
  72   2.0000      -0.702632       -19.1196
  73   2.0000      -0.681474       -18.5438
  74   2.0000      -0.670949       -18.2575
  75   2.0000      -0.662865       -18.0375
  76   2.0000      -0.656069       -17.8525
  77   2.0000      -0.653073       -17.7710
  78   2.0000      -0.601503       -16.3677
  79   2.0000      -0.583489       -15.8775
  80   2.0000      -0.570122       -15.5138
  81   2.0000      -0.567220       -15.4348
  82   2.0000      -0.561257       -15.2726
  83   2.0000      -0.558649       -15.2016
  84   2.0000      -0.551397       -15.0043
  85   2.0000      -0.547037       -14.8856
  86   2.0000      -0.544163       -14.8074
  87   2.0000      -0.540107       -14.6971
  88   2.0000      -0.538219       -14.6457
  89   2.0000      -0.535725       -14.5778
  90   2.0000      -0.533391       -14.5143
  91   2.0000      -0.532248       -14.4832
  92   2.0000      -0.526100       -14.3159
  93   2.0000      -0.517158       -14.0726
  94   2.0000      -0.514517       -14.0007
  95   2.0000      -0.513000       -13.9594
  96   2.0000      -0.509933       -13.8760
  97   2.0000      -0.507217       -13.8021
  98   2.0000      -0.502895       -13.6845
  99   2.0000      -0.501156       -13.6371
 100   2.0000      -0.499393       -13.5892
 101   2.0000      -0.498599       -13.5676
 102   2.0000      -0.496215       -13.5027
 103   2.0000      -0.494221       -13.4484
 104   2.0000      -0.488111       -13.2822
 105   2.0000      -0.486507       -13.2385
 106   2.0000      -0.471442       -12.8286
 107   2.0000      -0.462730       -12.5915
 108   2.0000      -0.448429       -12.2024
 109   2.0000      -0.446072       -12.1382
 110   2.0000      -0.444473       -12.0947
 111   2.0000      -0.440139       -11.9768
 112   2.0000      -0.434080       -11.8119
 113   2.0000      -0.429028       -11.6744
 114   2.0000      -0.425677       -11.5832
 115   2.0000      -0.424646       -11.5552
 116   2.0000      -0.423667       -11.5286
 117   2.0000      -0.420334       -11.4379
 118   2.0000      -0.411292       -11.1918
 119   2.0000      -0.405066       -11.0224
 120   2.0000      -0.379442       -10.3252
 121   2.0000      -0.363146        -9.8817
 122   2.0000      -0.339202        -9.2301
 123   2.0000      -0.324031        -8.8173
 124   2.0000      -0.323384        -8.7997
 125   2.0000      -0.318471        -8.6660
 126   2.0000      -0.310211        -8.4413
 127   2.0000      -0.300562        -8.1787
 128   2.0000      -0.280678        -7.6376
 129   2.0000      -0.241827        -6.5805
 130   0.0000       0.039799         1.0830
 131   0.0000       0.053649         1.4599
 132   0.0000       0.056963         1.5500
 133   0.0000       0.060112         1.6357
 134   0.0000       0.068572         1.8659

MULLIKEN ATOMIC CHARGES
-----------------------
   0 Ru:   -1.553232
   1 Se:   -0.338519
   2 P :    1.376665
   3 P :    1.095930
   4 P :    1.187186
   5 P :    1.054572
   6 C :    0.402363
   7 C :   -0.537365
   8 C :   -0.130030
   9 C :   -0.011333
  10 C :   -0.621742
  11 C :    1.281102
  12 C :   -0.645791
  13 C :   -0.496016
  14 C :   -0.534057
  15 C :   -0.632618
  16 C :   -0.390728
  17 C :   -0.353607
  18 C :   -0.219239
  19 C :   -0.501408
  20 C :   -0.451241
  21 C :   -0.310706
  22 C :   -0.501804
  23 C :   -0.289041
  24 H :   -0.044030
  25 H :   -0.097454
  26 H :   -0.069816
  27 H :   -0.051501
  28 H :   -0.065077
  29 H :   -0.415521
  30 H :    0.041153
  31 H :    0.111829
  32 H :    0.181560
  33 H :    0.085280
  34 H :    0.045859
  35 H :    0.188365
  36 H :    0.040481
  37 H :    0.157386
  38 H :   -0.003626
  39 H :    0.186469
  40 H :    0.063001
  41 H :    0.063781
  42 H :    0.137549
  43 H :    0.047392
  44 H :    0.017485
  45 H :    0.160863
  46 H :    0.001176
  47 H :    0.040271
  48 H :    0.192662
  49 H :   -0.016805
  50 H :   -0.090609
  51 H :    0.182674
  52 H :    0.037404
  53 H :    0.073842
  54 H :    0.181837
  55 H :   -0.007812
  56 H :    0.067559
  57 H :    0.190695
  58 H :   -0.035751
  59 H :   -0.012810
  60 H :    0.161141
  61 H :    0.076926
  62 H :    0.061106
  63 H :    0.180419
  64 H :    0.052405
  65 H :    0.002898
Sum of atomic charges:    0.0000000

LOEWDIN ATOMIC CHARGES
----------------------
   0 Ru:   -0.117298
   1 Se:    0.659558
   2 P :    0.764770
   3 P :    0.775290
   4 P :    0.774581
   5 P :    0.770152
   6 C :   -0.581297
   7 C :   -0.066098
   8 C :   -0.005735
   9 C :   -0.009838
  10 C :    0.002783
  11 C :   -0.093714
  12 C :   -0.029080
  13 C :   -0.020822
  14 C :   -0.029788
  15 C :   -0.034280
  16 C :   -0.020997
  17 C :   -0.017196
  18 C :   -0.020476
  19 C :   -0.025903
  20 C :   -0.050661
  21 C :   -0.007522
  22 C :   -0.021398
  23 C :   -0.041909
  24 H :   -0.112104
  25 H :   -0.014316
  26 H :   -0.003072
  27 H :   -0.008077
  28 H :   -0.001230
  29 H :   -0.065131
  30 H :   -0.060072
  31 H :   -0.064235
  32 H :   -0.048026
  33 H :   -0.066041
  34 H :   -0.085911
  35 H :   -0.047521
  36 H :   -0.052181
  37 H :   -0.047995
  38 H :   -0.089664
  39 H :   -0.047211
  40 H :   -0.074315
  41 H :   -0.065302
  42 H :   -0.047478
  43 H :   -0.065257
  44 H :   -0.084648
  45 H :   -0.046766
  46 H :   -0.080736
  47 H :   -0.075121
  48 H :   -0.045992
  49 H :   -0.049943
  50 H :   -0.075791
  51 H :   -0.049187
  52 H :   -0.068346
  53 H :   -0.074830
  54 H :   -0.049139
  55 H :   -0.113547
  56 H :   -0.074860
  57 H :   -0.045188
  58 H :   -0.071010
  59 H :   -0.056332
  60 H :   -0.047635
  61 H :   -0.078412
  62 H :   -0.068419
  63 H :   -0.047612
  64 H :   -0.077471
  65 H :   -0.107000

  Mayer bond orders larger than 0.100000
B(  0-Ru,  1-Se) :   0.5807 B(  0-Ru,  2-P ) :   0.6933 B(  0-Ru,  3-P ) :   0.6038
B(  0-Ru,  4-P ) :   0.6434 B(  0-Ru,  5-P ) :   0.6581 B(  0-Ru, 11-C ) :  -0.1330
B(  0-Ru, 12-C ) :   0.1295 B(  0-Ru, 13-C ) :   0.1102 B(  0-Ru, 14-C ) :   0.1585
B(  0-Ru, 16-C ) :   0.1565 B(  0-Ru, 18-C ) :   0.1268 B(  0-Ru, 21-C ) :   0.1273
B(  0-Ru, 24-H ) :   0.8149 B(  0-Ru, 29-H ) :   0.5099 B(  1-Se,  3-P ) :  -0.2416
B(  1-Se,  4-P ) :   0.1866 B(  1-Se,  5-P ) :   0.1533 B(  1-Se,  6-C ) :   0.7801
B(  1-Se,  7-C ) :   0.1041 B(  1-Se, 11-C ) :   0.1799 B(  1-Se, 15-C ) :   0.1008
B(  1-Se, 29-H ) :   0.2628 B(  2-P ,  3-P ) :   0.4522 B(  2-P ,  5-P ) :   0.2339
B(  2-P , 12-C ) :   0.5574 B(  2-P , 13-C ) :   0.5891 B(  2-P , 14-C ) :   0.6874
B(  2-P , 24-H ) :  -0.2029 B(  3-P ,  5-P ) :   0.1025 B(  3-P , 15-C ) :   0.6104
B(  3-P , 16-C ) :   0.5985 B(  3-P , 17-C ) :   0.5086 B(  3-P , 24-H ) :   0.1616
B(  4-P ,  5-P ) :   0.2093 B(  4-P , 18-C ) :   0.6224 B(  4-P , 19-C ) :   0.6449
B(  4-P , 20-C ) :   0.6914 B(  4-P , 24-H ) :  -0.1178 B(  4-P , 29-H ) :  -0.1103
B(  4-P , 50-H ) :   0.1373 B(  5-P , 21-C ) :   0.7491 B(  5-P , 22-C ) :   0.5951
B(  5-P , 23-C ) :   0.5882 B(  5-P , 29-H ) :  -0.1475 B(  5-P , 58-H ) :   0.1142
B(  5-P , 65-H ) :   0.1028 B(  6-C ,  7-C ) :   0.9594 B(  6-C , 10-C ) :   0.1104
B(  6-C , 11-C ) :   1.1608 B(  6-C , 25-H ) :  -0.1575 B(  6-C , 29-H ) :  -0.1743
B(  7-C ,  8-C ) :   1.2176 B(  7-C , 10-C ) :   0.1256 B(  7-C , 11-C ) :  -0.2832
B(  7-C , 25-H ) :   1.1432 B(  7-C , 26-H ) :  -0.1090 B(  8-C ,  9-C ) :   1.1435
B(  8-C , 10-C ) :   0.1219 B(  8-C , 11-C ) :  -0.1123 B(  8-C , 25-H ) :  -0.1062
B(  8-C , 26-H ) :   1.1762 B(  8-C , 27-H ) :  -0.1075 B(  9-C , 10-C ) :   1.2358
B(  9-C , 11-C ) :  -0.1073 B(  9-C , 27-H ) :   1.1647 B(  9-C , 28-H ) :  -0.1219
B( 10-C , 11-C ) :   0.6284 B( 10-C , 27-H ) :  -0.1031 B( 10-C , 28-H ) :   1.2244
B( 11-C , 24-H ) :  -0.1354 B( 11-C , 28-H ) :  -0.1634 B( 11-C , 29-H ) :   0.7084
B( 12-C , 13-C ) :   0.1338 B( 12-C , 14-C ) :   0.2041 B( 12-C , 30-H ) :   1.0183
B( 12-C , 31-H ) :   0.9573 B( 12-C , 32-H ) :   0.9036 B( 13-C , 14-C ) :   0.1311
B( 13-C , 33-H ) :   0.9499 B( 13-C , 34-H ) :   1.0145 B( 13-C , 35-H ) :   0.9135
B( 14-C , 36-H ) :   0.9881 B( 14-C , 37-H ) :   0.9530 B( 14-C , 38-H ) :   0.9800
B( 15-C , 16-C ) :   0.1503 B( 15-C , 17-C ) :   0.1644 B( 15-C , 39-H ) :   0.9312
B( 15-C , 40-H ) :   0.9919 B( 15-C , 41-H ) :   0.9740 B( 16-C , 17-C ) :   0.2021
B( 16-C , 42-H ) :   0.9526 B( 16-C , 43-H ) :   0.9675 B( 16-C , 44-H ) :   0.9520
B( 17-C , 45-H ) :   0.9099 B( 17-C , 46-H ) :   0.9337 B( 17-C , 47-H ) :   0.9811
B( 18-C , 19-C ) :   0.1487 B( 18-C , 20-C ) :   0.1403 B( 18-C , 48-H ) :   0.8887
B( 18-C , 49-H ) :   0.9463 B( 18-C , 50-H ) :   0.9656 B( 19-C , 20-C ) :   0.1743
B( 19-C , 51-H ) :   0.9304 B( 19-C , 52-H ) :   1.0137 B( 19-C , 53-H ) :   0.9633
B( 20-C , 54-H ) :   0.9266 B( 20-C , 55-H ) :   0.9804 B( 20-C , 56-H ) :   0.9823
B( 21-C , 22-C ) :   0.1243 B( 21-C , 23-C ) :   0.1384 B( 21-C , 57-H ) :   0.8718
B( 21-C , 58-H ) :   0.9953 B( 21-C , 59-H ) :   0.9379 B( 22-C , 23-C ) :   0.1880
B( 22-C , 60-H ) :   0.9378 B( 22-C , 61-H ) :   0.9760 B( 22-C , 62-H ) :   0.9804
B( 23-C , 63-H ) :   0.9358 B( 23-C , 64-H ) :   0.9464 B( 23-C , 65-H ) :   0.9247
B( 33-H , 34-H ) :   0.1114 B( 40-H , 41-H ) :   0.1140 B( 46-H , 47-H ) :   0.1307
B( 49-H , 50-H ) :   0.1077 B( 55-H , 56-H ) :   0.1175 B( 58-H , 59-H ) :   0.1068
B( 61-H , 62-H ) :   0.1043 B( 64-H , 65-H ) :   0.1106

FINAL SINGLE POINT ENERGY     -4572.984556960494

DIPOLE MOMENT
-------------
                                X             Y             Z
Electronic contribution:      6.85193       3.76054      -7.24907
Nuclear contribution   :     -4.37445      -3.89216       7.69405
                        -----------------------------------------
Total Dipole Moment    :      2.47748      -0.13161       0.44498
                        -----------------------------------------
Magnitude (a.u.)       :      2.52056
Magnitude (Debye)      :      6.40675

Rotational constants in cm-1:     0.006518     0.004113     0.003881
Rotational constants in MHz :   195.407297   123.317842   116.359449

                             ****ORCA TERMINATED NORMALLY****
TOTAL RUN TIME: 0 days 1 hours 58 minutes 1 seconds 117 msec
