                         Program Version 4.2.0 -  RELEASE  -
|  1> #
|  2> # TMB06_C1 wB97X-V/Def2-TZVPPD
|  3> #
|  4> ! wb97x-v def2-tzvppd def2/jk grid4 nofinalgrid
|  5>
|  6> *xyz -2 1
|  7> C       -4.922177    0.231539    2.107663
|  8> C       -4.446966   -0.260950    0.727306
|  9> O       -4.786048   -1.445661    0.381045
| 10> O       -3.774664    0.534657    0.034272
| 11> C        2.853834    2.539483    0.111094
| 12> S        1.699014    2.002949   -1.213407
| 13> C        2.621388   -0.654255    2.558361
| 14> S        1.079319    0.109893    2.243750
| 15> C        3.475179   -0.966107    1.545638
| 16> S        3.017258   -0.732048   -0.112289
| 17> C       -0.719852   -2.060810   -2.434513
| 18> S        0.476784   -0.759924   -2.482057
| 19> C       -1.165423   -2.576996   -1.263023
| 20> S       -0.426778   -2.115489    0.280596
| 21> W        0.581769    0.074169   -0.056710
| 22> O       -3.686516    3.100880   -0.970074
| 23> C       -0.958024    1.126222    0.768552
| 24> C       -1.050846    1.201510   -0.527136
| 25> H       -4.399031   -0.338057    2.886550
| 26> H       -4.651123    1.285347    2.215183
| 27> H        2.286624    2.922259    0.966567
| 28> H        3.439558    1.684807    0.443645
| 29> H       -3.719098    2.271105   -0.448699
| 30> H       -4.432659    3.004669   -1.574445
| 31> H       -1.423366    1.443209    1.691261
| 32> H       -1.628538    1.662411   -1.315772
| 33> H       -1.080680   -2.444086   -3.386693
| 34> H       -2.006521   -3.265324   -1.212989
| 35> H        3.558044    3.288012   -0.266819
| 36> H        2.852091   -0.869929    3.599516
| 37> H        4.480661   -1.317935    1.766923
| 38> H       -6.001258    0.102048    2.241238
| 39> *
| 40>
| 41> %maxcore 5000
| 42>
| 43> %pal
| 44> nprocs = 24
| 45> end
| 46>
| 47>
| 48>                          ****END OF INPUT****

CARTESIAN COORDINATES (ANGSTROEM)
---------------------------------
  C     -4.922177    0.231539    2.107663
  C     -4.446966   -0.260950    0.727306
  O     -4.786048   -1.445661    0.381045
  O     -3.774664    0.534657    0.034272
  C      2.853834    2.539483    0.111094
  S      1.699014    2.002949   -1.213407
  C      2.621388   -0.654255    2.558361
  S      1.079319    0.109893    2.243750
  C      3.475179   -0.966107    1.545638
  S      3.017258   -0.732048   -0.112289
  C     -0.719852   -2.060810   -2.434513
  S      0.476784   -0.759924   -2.482057
  C     -1.165423   -2.576996   -1.263023
  S     -0.426778   -2.115489    0.280596
  W      0.581769    0.074169   -0.056710
  O     -3.686516    3.100880   -0.970074
  C     -0.958024    1.126222    0.768552
  C     -1.050846    1.201510   -0.527136
  H     -4.399031   -0.338057    2.886550
  H     -4.651123    1.285347    2.215183
  H      2.286624    2.922259    0.966567
  H      3.439558    1.684807    0.443645
  H     -3.719098    2.271105   -0.448699
  H     -4.432659    3.004669   -1.574445
  H     -1.423366    1.443209    1.691261
  H     -1.628538    1.662411   -1.315772
  H     -1.080680   -2.444086   -3.386693
  H     -2.006521   -3.265324   -1.212989
  H      3.558044    3.288012   -0.266819
  H      2.852091   -0.869929    3.599516
  H      4.480661   -1.317935    1.766923
  H     -6.001258    0.102048    2.241238

 Total Charge           Charge          ....   -2
 Multiplicity           Mult            ....    1
 Number of Electrons    NEL             ....  188
 Basis Dimension        Dim             .... 1005

ORBITAL ENERGIES
----------------

  NO   OCC          E(Eh)            E(eV)
   0   2.0000     -88.654466     -2412.4107
   1   2.0000     -88.624836     -2411.6044
   2   2.0000     -88.614835     -2411.3323
   3   2.0000     -88.606576     -2411.1075
   4   2.0000     -88.602388     -2410.9936
   5   2.0000     -18.987586      -516.6785
   6   2.0000     -18.910334      -514.5763
   7   2.0000     -18.896629      -514.2034
   8   2.0000     -10.115134      -275.2468
   9   2.0000     -10.105650      -274.9887
  10   2.0000     -10.092848      -274.6404
  11   2.0000     -10.078574      -274.2519
  12   2.0000     -10.072087      -274.0754
  13   2.0000     -10.067323      -273.9458
  14   2.0000     -10.063707      -273.8474
  15   2.0000     -10.061918      -273.7987
  16   2.0000     -10.043605      -273.3004
  17   2.0000      -7.832185      -213.1246
  18   2.0000      -7.803685      -212.3491
  19   2.0000      -7.793440      -212.0703
  20   2.0000      -7.785074      -211.8426
  21   2.0000      -7.780591      -211.7207
  22   2.0000      -5.787292      -157.4802
  23   2.0000      -5.783555      -157.3785
  24   2.0000      -5.781393      -157.3197
  25   2.0000      -5.759294      -156.7184
  26   2.0000      -5.754130      -156.5778
  27   2.0000      -5.753044      -156.5483
  28   2.0000      -5.748952      -156.4369
  29   2.0000      -5.744471      -156.3150
  30   2.0000      -5.742427      -156.2594
  31   2.0000      -5.741385      -156.2310
  32   2.0000      -5.736529      -156.0989
  33   2.0000      -5.736494      -156.0979
  34   2.0000      -5.732787      -155.9971
  35   2.0000      -5.731662      -155.9664
  36   2.0000      -5.729247      -155.9007
  37   2.0000      -2.922484       -79.5248
  38   2.0000      -1.563856       -42.5547
  39   2.0000      -1.559676       -42.4409
  40   2.0000      -1.553030       -42.2601
  41   2.0000      -0.912578       -24.8325
  42   2.0000      -0.902953       -24.5706
  43   2.0000      -0.807481       -21.9727
  44   2.0000      -0.749063       -20.3830
  45   2.0000      -0.711944       -19.3730
  46   2.0000      -0.681786       -18.5523
  47   2.0000      -0.668661       -18.1952
  48   2.0000      -0.646388       -17.5891
  49   2.0000      -0.623238       -16.9592
  50   2.0000      -0.610145       -16.6029
  51   2.0000      -0.572940       -15.5905
  52   2.0000      -0.542322       -14.7573
  53   2.0000      -0.516946       -14.0668
  54   2.0000      -0.463445       -12.6110
  55   2.0000      -0.442906       -12.0521
  56   2.0000      -0.418907       -11.3990
  57   2.0000      -0.416824       -11.3423
  58   2.0000      -0.390246       -10.6191
  59   2.0000      -0.379130       -10.3166
  60   2.0000      -0.375420       -10.2157
  61   2.0000      -0.356737        -9.7073
  62   2.0000      -0.334435        -9.1004
  63   2.0000      -0.324814        -8.8386
  64   2.0000      -0.320524        -8.7219
  65   2.0000      -0.318785        -8.6746
  66   2.0000      -0.310481        -8.4486
  67   2.0000      -0.306720        -8.3463
  68   2.0000      -0.276263        -7.5175
  69   2.0000      -0.275267        -7.4904
  70   2.0000      -0.254019        -6.9122
  71   2.0000      -0.251071        -6.8320
  72   2.0000      -0.245737        -6.6869
  73   2.0000      -0.241520        -6.5721
  74   2.0000      -0.231146        -6.2898
  75   2.0000      -0.226933        -6.1752
  76   2.0000      -0.218473        -5.9450
  77   2.0000      -0.212065        -5.7706
  78   2.0000      -0.204177        -5.5559
  79   2.0000      -0.197223        -5.3667
  80   2.0000      -0.191621        -5.2143
  81   2.0000      -0.179778        -4.8920
  82   2.0000      -0.161296        -4.3891
  83   2.0000      -0.157787        -4.2936
  84   2.0000      -0.142522        -3.8782
  85   2.0000      -0.127514        -3.4698
  86   2.0000      -0.124763        -3.3950
  87   2.0000      -0.105689        -2.8760
  88   2.0000      -0.104290        -2.8379
  89   2.0000      -0.099927        -2.7191
  90   2.0000      -0.089046        -2.4231
  91   2.0000      -0.086227        -2.3463
  92   2.0000      -0.081055        -2.2056
  93   2.0000      -0.046169        -1.2563
  94   0.0000       0.182718         4.9720
  95   0.0000       0.193946         5.2776
  96   0.0000       0.206535         5.6201
  97   0.0000       0.211862         5.7651
  98   0.0000       0.215660         5.8684

MULLIKEN ATOMIC CHARGES
-----------------------
   0 C :   -0.125278
   1 C :    0.359545
   2 O :   -0.707827
   3 O :   -0.588848
   4 C :    0.188944
   5 S :   -0.510588
   6 C :    0.261807
   7 S :   -0.363255
   8 C :    0.136531
   9 S :   -0.452258
  10 C :    0.211463
  11 S :   -0.473709
  12 C :    0.271296
  13 S :   -0.438347
  14 W :    0.042719
  15 O :   -0.488183
  16 C :    0.359301
  17 C :    0.493955
  18 H :    0.001057
  19 H :    0.056232
  20 H :    0.016657
  21 H :   -0.063124
  22 H :    0.339667
  23 H :    0.131823
  24 H :   -0.117806
  25 H :   -0.223804
  26 H :   -0.102132
  27 H :   -0.090314
  28 H :    0.031876
  29 H :   -0.088424
  30 H :   -0.100189
  31 H :    0.031213
Sum of atomic charges:   -2.0000000

LOEWDIN ATOMIC CHARGES
----------------------
   0 C :    0.157607
   1 C :   -0.682448
   2 O :   -0.116237
   3 O :   -0.066134
   4 C :   -0.324953
   5 S :    0.411427
   6 C :   -0.548603
   7 S :    0.618538
   8 C :   -0.584432
   9 S :    0.501585
  10 C :   -0.582848
  11 S :    0.436118
  12 C :   -0.543400
  13 S :    0.520832
  14 W :    0.147584
  15 O :    0.369395
  16 C :   -0.205355
  17 C :   -0.170000
  18 H :   -0.026227
  19 H :   -0.034070
  20 H :   -0.085511
  21 H :   -0.153278
  22 H :   -0.286584
  23 H :   -0.224736
  24 H :   -0.050223
  25 H :   -0.044664
  26 H :   -0.081338
  27 H :   -0.069833
  28 H :   -0.088162
  29 H :   -0.084394
  30 H :   -0.074282
  31 H :   -0.035375

  Mayer bond orders larger than 0.100000
B(  0-C ,  1-C ) :   0.9018 B(  0-C , 18-H ) :   1.0195 B(  0-C , 19-H ) :   0.9910
B(  0-C , 31-H ) :   1.0187 B(  1-C ,  2-O ) :   1.5896 B(  1-C ,  3-O ) :   1.5969
B(  4-C ,  5-S ) :   0.7859 B(  4-C ,  9-S ) :  -0.1149 B(  4-C , 20-H ) :   1.0026
B(  4-C , 21-H ) :   0.9344 B(  4-C , 28-H ) :   0.9995 B(  5-S , 14-W ) :   1.0460
B(  5-S , 16-C ) :  -0.1320 B(  6-C ,  7-S ) :   0.9395 B(  6-C ,  8-C ) :   1.4609
B(  6-C , 29-H ) :   1.1345 B(  6-C , 30-H ) :  -0.1400 B(  7-S , 14-W ) :   1.2177
B(  8-C ,  9-S ) :   1.0833 B(  8-C , 29-H ) :  -0.1056 B(  8-C , 30-H ) :   1.1655
B(  9-S , 14-W ) :   0.8874 B( 10-C , 11-S ) :   1.0338 B( 10-C , 12-C ) :   1.4911
B( 10-C , 26-H ) :   1.1397 B( 10-C , 27-H ) :  -0.1372 B( 11-S , 14-W ) :   0.9771
B( 11-S , 17-C ) :  -0.1104 B( 12-C , 13-S ) :   0.9286 B( 12-C , 26-H ) :  -0.1135
B( 12-C , 27-H ) :   1.1617 B( 13-S , 14-W ) :   1.1809 B( 13-S , 16-C ) :  -0.1058
B( 14-W , 16-C ) :   1.0296 B( 14-W , 17-C ) :   1.1109 B( 15-O , 22-H ) :   0.8467
B( 15-O , 23-H ) :   1.0539 B( 16-C , 17-C ) :   1.5018 B( 16-C , 24-H ) :   0.9971
B( 17-C , 25-H ) :   0.9849

FINAL SINGLE POINT ENERGY     -2635.057199356398

DIPOLE MOMENT
-------------
                                X             Y             Z
Electronic contribution:     92.90520       4.39958     -11.76050
Nuclear contribution   :    -89.05733      -3.76163      13.00017
                        -----------------------------------------
Total Dipole Moment    :      3.84788       0.63795       1.23966
                        -----------------------------------------
Magnitude (a.u.)       :      4.09266
Magnitude (Debye)      :     10.40272

Rotational constants in cm-1:     0.010716     0.005373     0.005252
Rotational constants in MHz :   321.254043   161.065395   157.440366

                             ****ORCA TERMINATED NORMALLY****
TOTAL RUN TIME: 0 days 0 hours 22 minutes 39 seconds 743 msec
