                         Program Version 4.2.0 -  RELEASE  -
|  1> #
|  2> # TMB01_R2 wB97X-V/Def2-TZVPPD
|  3> #
|  4> ! wb97x-v def2-tzvppd def2/jk grid4 nofinalgrid
|  5>
|  6> *xyz 0 1
|  7> C        0.000000    0.000000    0.598253
|  8> C        0.000000    0.000000   -0.598253
|  9> H        0.000000    0.000000    1.662161
| 10> H        0.000000    0.000000   -1.662161
| 11> *
| 12>
| 13> %maxcore 5000
| 14>
| 15> %pal
| 16> nprocs = 24
| 17> end
| 18>
| 19>
| 20>                          ****END OF INPUT****

CARTESIAN COORDINATES (ANGSTROEM)
---------------------------------
  C      0.000000    0.000000    0.598253
  C      0.000000    0.000000   -0.598253
  H      0.000000    0.000000    1.662161
  H      0.000000    0.000000   -1.662161

 Total Charge           Charge          ....    0
 Multiplicity           Mult            ....    1
 Number of Electrons    NEL             ....   14
 Basis Dimension        Dim             ....  108

ORBITAL ENERGIES
----------------

  NO   OCC          E(Eh)            E(eV)
   0   2.0000     -10.281085      -279.7625
   1   2.0000     -10.278410      -279.6898
   2   2.0000      -0.888762       -24.1844
   3   2.0000      -0.689252       -18.7555
   4   2.0000      -0.612221       -16.6594
   5   2.0000      -0.403077       -10.9683
   6   2.0000      -0.403077       -10.9683
   7   0.0000       0.067833         1.8458
   8   0.0000       0.084527         2.3001
   9   0.0000       0.103414         2.8140
  10   0.0000       0.103414         2.8140
  11   0.0000       0.142510         3.8779

MULLIKEN ATOMIC CHARGES
-----------------------
   0 C :   -0.070569
   1 C :   -0.070767
   2 H :    0.070670
   3 H :    0.070666
Sum of atomic charges:    0.0000000

LOEWDIN ATOMIC CHARGES
----------------------
   0 C :    0.096248
   1 C :    0.096248
   2 H :   -0.096248
   3 H :   -0.096248

  Mayer bond orders larger than 0.100000
B(  0-C ,  1-C ) :   3.2115 B(  0-C ,  2-H ) :   0.8650 B(  0-C ,  3-H ) :   0.1642
B(  1-C ,  2-H ) :   0.1643 B(  1-C ,  3-H ) :   0.8650

FINAL SINGLE POINT ENERGY       -77.332605766054

DIPOLE MOMENT
-------------
                                X             Y             Z
Electronic contribution:     -0.00000       0.00000      -0.00000
Nuclear contribution   :      0.00000       0.00000       0.00000
                        -----------------------------------------
Total Dipole Moment    :     -0.00000       0.00000      -0.00000
                        -----------------------------------------
Magnitude (a.u.)       :      0.00000
Magnitude (Debye)      :      0.00000

Rotational constants in cm-1:     0.000000     1.189890     1.189890
Rotational constants in MHz :     0.000000 35672.008035 35672.008035

                             ****ORCA TERMINATED NORMALLY****
TOTAL RUN TIME: 0 days 0 hours 0 minutes 3 seconds 175 msec
