                         Program Version 4.2.0 -  RELEASE  -
|  1> #
|  2> # TMB08_C1 wB97X-V/Def2-TZVPPD
|  3> #
|  4> ! wb97x-v def2-tzvppd def2/jk grid4 nofinalgrid
|  5>
|  6> *xyz -1 1
|  7> O       -0.906881    0.014085    1.547895
|  8> Mo       0.376053    0.005978   -0.001071
|  9> O       -1.663172   -0.405524   -0.725982
| 10> S        1.900189   -1.271673    1.262125
| 11> C        2.414735   -2.638587    0.321741
| 12> C        1.961707   -2.798175   -0.938062
| 13> S        0.862636   -1.648766   -1.631530
| 14> S        1.558394    1.801029    0.984387
| 15> C        1.596911    3.127556   -0.137889
| 16> C        1.038164    3.004113   -1.358311
| 17> S        0.284978    1.511994   -1.829576
| 18> S       -2.828559   -0.609282    0.265517
| 19> C       -3.471491    1.031204    0.628759
| 20> H       -2.700467    1.513975    1.240208
| 21> H       -3.606824    1.576556   -0.316000
| 22> H       -4.419892    0.937929    1.179101
| 23> C       -4.093537   -1.069425   -0.932883
| 24> H       -3.796770   -2.046338   -1.337942
| 25> H       -5.068961   -1.152599   -0.429186
| 26> H       -4.123504   -0.329731   -1.745777
| 27> C       -0.609178    0.103975    2.901511
| 28> H       -0.060534    1.039756    3.130388
| 29> H       -1.547958    0.094647    3.495802
| 30> H        0.020434   -0.743420    3.237520
| 31> H        2.283338   -3.631534   -1.572173
| 32> H        3.135734   -3.322762    0.781228
| 33> H        1.069667    3.809818   -2.099793
| 34> H        2.115872    4.037362    0.182319
| 35> *
| 36>
| 37> %maxcore 5000
| 38>
| 39> %pal
| 40> nprocs = 24
| 41> end
| 42>
| 43>
| 44>                          ****END OF INPUT****

CARTESIAN COORDINATES (ANGSTROEM)
---------------------------------
  O     -0.906881    0.014085    1.547895
  Mo     0.376053    0.005978   -0.001071
  O     -1.663172   -0.405524   -0.725982
  S      1.900189   -1.271673    1.262125
  C      2.414735   -2.638587    0.321741
  C      1.961707   -2.798175   -0.938062
  S      0.862636   -1.648766   -1.631530
  S      1.558394    1.801029    0.984387
  C      1.596911    3.127556   -0.137889
  C      1.038164    3.004113   -1.358311
  S      0.284978    1.511994   -1.829576
  S     -2.828559   -0.609282    0.265517
  C     -3.471491    1.031204    0.628759
  H     -2.700467    1.513975    1.240208
  H     -3.606824    1.576556   -0.316000
  H     -4.419892    0.937929    1.179101
  C     -4.093537   -1.069425   -0.932883
  H     -3.796770   -2.046338   -1.337942
  H     -5.068961   -1.152599   -0.429186
  H     -4.123504   -0.329731   -1.745777
  C     -0.609178    0.103975    2.901511
  H     -0.060534    1.039756    3.130388
  H     -1.547958    0.094647    3.495802
  H      0.020434   -0.743420    3.237520
  H      2.283338   -3.631534   -1.572173
  H      3.135734   -3.322762    0.781228
  H      1.069667    3.809818   -2.099793
  H      2.115872    4.037362    0.182319

 Total Charge           Charge          ....   -1
 Multiplicity           Mult            ....    1
 Number of Electrons    NEL             ....  166
 Basis Dimension        Dim             ....  871

ORBITAL ENERGIES
----------------

  NO   OCC          E(Eh)            E(eV)
   0   2.0000     -88.878514     -2418.5073
   1   2.0000     -88.693291     -2413.4671
   2   2.0000     -88.692352     -2413.4416
   3   2.0000     -88.689463     -2413.3630
   4   2.0000     -88.688799     -2413.3449
   5   2.0000     -19.097127      -519.6592
   6   2.0000     -19.061262      -518.6833
   7   2.0000     -10.218688      -278.0646
   8   2.0000     -10.213072      -277.9118
   9   2.0000     -10.180286      -277.0197
  10   2.0000     -10.149134      -276.1720
  11   2.0000     -10.149103      -276.1711
  12   2.0000     -10.148247      -276.1478
  13   2.0000     -10.147636      -276.1312
  14   2.0000      -8.043355      -218.8708
  15   2.0000      -7.872133      -214.2116
  16   2.0000      -7.871138      -214.1845
  17   2.0000      -7.868412      -214.1104
  18   2.0000      -7.867689      -214.0907
  19   2.0000      -5.998636      -163.2312
  20   2.0000      -5.998059      -163.2155
  21   2.0000      -5.991784      -163.0447
  22   2.0000      -5.827434      -158.5725
  23   2.0000      -5.826519      -158.5476
  24   2.0000      -5.823801      -158.4737
  25   2.0000      -5.823090      -158.4543
  26   2.0000      -5.822869      -158.4483
  27   2.0000      -5.821693      -158.4163
  28   2.0000      -5.821609      -158.4140
  29   2.0000      -5.820721      -158.3899
  30   2.0000      -5.818714      -158.3353
  31   2.0000      -5.818203      -158.3213
  32   2.0000      -5.817886      -158.3127
  33   2.0000      -5.817580      -158.3044
  34   2.0000      -2.574581       -70.0579
  35   2.0000      -1.582825       -43.0708
  36   2.0000      -1.573080       -42.8057
  37   2.0000      -1.551664       -42.2229
  38   2.0000      -1.055314       -28.7165
  39   2.0000      -0.975548       -26.5460
  40   2.0000      -0.844902       -22.9909
  41   2.0000      -0.805190       -21.9103
  42   2.0000      -0.802222       -21.8296
  43   2.0000      -0.767088       -20.8735
  44   2.0000      -0.700085       -19.0503
  45   2.0000      -0.697116       -18.9695
  46   2.0000      -0.659727       -17.9521
  47   2.0000      -0.646929       -17.6038
  48   2.0000      -0.631910       -17.1951
  49   2.0000      -0.615420       -16.7464
  50   2.0000      -0.506686       -13.7876
  51   2.0000      -0.503118       -13.6905
  52   2.0000      -0.496568       -13.5123
  53   2.0000      -0.494362       -13.4523
  54   2.0000      -0.491020       -13.3613
  55   2.0000      -0.449961       -12.2441
  56   2.0000      -0.448324       -12.1995
  57   2.0000      -0.445232       -12.1154
  58   2.0000      -0.442834       -12.0501
  59   2.0000      -0.435549       -11.8519
  60   2.0000      -0.425954       -11.5908
  61   2.0000      -0.415622       -11.3097
  62   2.0000      -0.402939       -10.9645
  63   2.0000      -0.382433       -10.4065
  64   2.0000      -0.368777       -10.0349
  65   2.0000      -0.330631        -8.9969
  66   2.0000      -0.320002        -8.7077
  67   2.0000      -0.317469        -8.6388
  68   2.0000      -0.308573        -8.3967
  69   2.0000      -0.304026        -8.2730
  70   2.0000      -0.293645        -7.9905
  71   2.0000      -0.276519        -7.5245
  72   2.0000      -0.256868        -6.9897
  73   2.0000      -0.256385        -6.9766
  74   2.0000      -0.253187        -6.8896
  75   2.0000      -0.233110        -6.3432
  76   2.0000      -0.219099        -5.9620
  77   2.0000      -0.217834        -5.9276
  78   2.0000      -0.190906        -5.1948
  79   2.0000      -0.185132        -5.0377
  80   2.0000      -0.167582        -4.5601
  81   2.0000      -0.138043        -3.7563
  82   2.0000      -0.122501        -3.3334
  83   0.0000       0.105512         2.8711
  84   0.0000       0.131551         3.5797
  85   0.0000       0.135327         3.6824
  86   0.0000       0.141871         3.8605
  87   0.0000       0.150039         4.0828

MULLIKEN ATOMIC CHARGES
-----------------------
   0 O :   -0.119290
   1 Mo:   -0.225220
   2 O :   -0.360417
   3 S :   -0.305426
   4 C :    0.198826
   5 C :    0.174787
   6 S :   -0.295082
   7 S :   -0.289304
   8 C :    0.183895
   9 C :    0.175069
  10 S :   -0.303544
  11 S :    0.540297
  12 C :   -0.133727
  13 H :    0.022266
  14 H :    0.089078
  15 H :    0.104181
  16 C :   -0.229371
  17 H :    0.072712
  18 H :    0.086413
  19 H :    0.072335
  20 C :   -0.158407
  21 H :    0.045877
  22 H :   -0.000629
  23 H :    0.007470
  24 H :   -0.094817
  25 H :   -0.079927
  26 H :   -0.093449
  27 H :   -0.084594
Sum of atomic charges:   -1.0000000

LOEWDIN ATOMIC CHARGES
----------------------
   0 O :   -0.543616
   1 Mo:    0.290791
   2 O :   -0.689350
   3 S :    0.541007
   4 C :   -0.597107
   5 C :   -0.612840
   6 S :    0.519890
   7 S :    0.532952
   8 C :   -0.601682
   9 C :   -0.612856
  10 S :    0.515447
  11 S :    0.969495
  12 C :    0.000915
  13 H :   -0.044598
  14 H :   -0.026709
  15 H :   -0.034336
  16 C :   -0.033165
  17 H :   -0.037127
  18 H :   -0.040476
  19 H :   -0.032555
  20 C :   -0.082652
  21 H :   -0.041087
  22 H :   -0.009173
  23 H :   -0.043018
  24 H :   -0.071752
  25 H :   -0.071864
  26 H :   -0.072458
  27 H :   -0.072075

  Mayer bond orders larger than 0.100000
B(  0-O ,  1-Mo) :   0.5949 B(  0-O ,  2-O ) :  -0.1367 B(  0-O , 20-C ) :   1.0410
B(  1-Mo,  2-O ) :   0.3767 B(  1-Mo,  3-S ) :   1.3503 B(  1-Mo,  6-S ) :   1.3181
B(  1-Mo,  7-S ) :   1.2747 B(  1-Mo, 10-S ) :   1.2806 B(  2-O ,  6-S ) :  -0.1289
B(  2-O , 11-S ) :   1.3917 B(  3-S ,  4-C ) :   0.9583 B(  4-C ,  5-C ) :   1.6740
B(  4-C , 24-H ) :  -0.1349 B(  4-C , 25-H ) :   1.1398 B(  5-C ,  6-S ) :   0.9850
B(  5-C , 24-H ) :   1.1389 B(  5-C , 25-H ) :  -0.1307 B(  7-S ,  8-C ) :   0.9848
B(  8-C ,  9-C ) :   1.6860 B(  8-C , 26-H ) :  -0.1262 B(  8-C , 27-H ) :   1.1399
B(  9-C , 10-S ) :   0.9930 B(  9-C , 26-H ) :   1.1331 B(  9-C , 27-H ) :  -0.1306
B( 11-S , 12-C ) :   0.8472 B( 11-S , 16-C ) :   0.8747 B( 12-C , 13-H ) :   1.0220
B( 12-C , 14-H ) :   0.9527 B( 12-C , 15-H ) :   0.9734 B( 16-C , 17-H ) :   0.9988
B( 16-C , 18-H ) :   0.9608 B( 16-C , 19-H ) :   0.9882 B( 20-C , 21-H ) :   0.9946
B( 20-C , 22-H ) :   1.0236 B( 20-C , 23-H ) :   1.0157

FINAL SINGLE POINT ENERGY     -2484.135771781446

DIPOLE MOMENT
-------------
                                X             Y             Z
Electronic contribution:     33.50800      -1.19291      -4.14134
Nuclear contribution   :    -37.01048       1.06082       4.72052
                        -----------------------------------------
Total Dipole Moment    :     -3.50248      -0.13209       0.57919
                        -----------------------------------------
Magnitude (a.u.)       :      3.55251
Magnitude (Debye)      :      9.02975

Rotational constants in cm-1:     0.012467     0.009914     0.008398
Rotational constants in MHz :   373.762122   297.203486   251.777416

                             ****ORCA TERMINATED NORMALLY****
TOTAL RUN TIME: 0 days 0 hours 13 minutes 39 seconds 884 msec
