                         Program Version 4.2.0 -  RELEASE  -
|  1> #
|  2> # TMB01_R1 wB97X-V/Def2-TZVPPD
|  3> #
|  4> ! wb97x-v def2-tzvppd def2/jk grid4 nofinalgrid
|  5>
|  6> *xyz 0 1
|  7> Zr      -0.000671    0.112924   -0.223454
|  8> C       -2.181938   -0.834851   -1.042825
|  9> C       -1.643164   -1.771750   -0.135830
| 10> C       -2.502306    0.332733   -0.316676
| 11> H       -1.308937   -2.768103   -0.380464
| 12> C       -1.636664   -1.184419    1.151214
| 13> H       -2.895434    1.248967   -0.729119
| 14> C       -2.175001    0.113493    1.036510
| 15> H       -1.306352   -1.655857    2.064126
| 16> H       -2.282924    0.831022    1.835850
| 17> C        1.600796   -1.794999   -0.006343
| 18> C        2.125532   -0.971960   -1.023204
| 19> C        1.653632   -1.076274    1.213076
| 20> H        2.228565   -1.232630   -2.063673
| 21> C        2.505388    0.254502   -0.432287
| 22> H        1.350619   -1.442345    2.182051
| 23> C        2.228391    0.183709    0.945544
| 24> H        2.903936    1.111956   -0.952399
| 25> H        2.382975    0.976423    1.661482
| 26> Cl       0.011968    2.512474    0.074703
| 27> H       -0.001250   -0.010619   -2.053074
| 28> H       -2.330784   -0.986753   -2.099038
| 29> H        1.234974   -2.802168   -0.132604
| 30> *
| 31>
| 32> %maxcore 5000
| 33>
| 34> %pal
| 35> nprocs = 24
| 36> end
| 37>
| 38>
| 39>                          ****END OF INPUT****

CARTESIAN COORDINATES (ANGSTROEM)
---------------------------------
  Zr    -0.000671    0.112924   -0.223454
  C     -2.181938   -0.834851   -1.042825
  C     -1.643164   -1.771750   -0.135830
  C     -2.502306    0.332733   -0.316676
  H     -1.308937   -2.768103   -0.380464
  C     -1.636664   -1.184419    1.151214
  H     -2.895434    1.248967   -0.729119
  C     -2.175001    0.113493    1.036510
  H     -1.306352   -1.655857    2.064126
  H     -2.282924    0.831022    1.835850
  C      1.600796   -1.794999   -0.006343
  C      2.125532   -0.971960   -1.023204
  C      1.653632   -1.076274    1.213076
  H      2.228565   -1.232630   -2.063673
  C      2.505388    0.254502   -0.432287
  H      1.350619   -1.442345    2.182051
  C      2.228391    0.183709    0.945544
  H      2.903936    1.111956   -0.952399
  H      2.382975    0.976423    1.661482
  Cl     0.011968    2.512474    0.074703
  H     -0.001250   -0.010619   -2.053074
  H     -2.330784   -0.986753   -2.099038
  H      1.234974   -2.802168   -0.132604

 Total Charge           Charge          ....    0
 Multiplicity           Mult            ....    1
 Number of Electrons    NEL             ....  100
 Basis Dimension        Dim             ....  664

ORBITAL ENERGIES
----------------

  NO   OCC          E(Eh)            E(eV)
   0   2.0000    -101.462802     -2760.9432
   1   2.0000     -10.295710      -280.1605
   2   2.0000     -10.295024      -280.1419
   3   2.0000     -10.294214      -280.1198
   4   2.0000     -10.294070      -280.1159
   5   2.0000     -10.293355      -280.0964
   6   2.0000     -10.292980      -280.0862
   7   2.0000     -10.292337      -280.0687
   8   2.0000     -10.291984      -280.0591
   9   2.0000     -10.287645      -279.9410
  10   2.0000     -10.287408      -279.9346
  11   2.0000      -9.504187      -258.6221
  12   2.0000      -7.254066      -197.3932
  13   2.0000      -7.253132      -197.3678
  14   2.0000      -7.251834      -197.3324
  15   2.0000      -2.259792       -61.4921
  16   2.0000      -1.393935       -37.9309
  17   2.0000      -1.390891       -37.8481
  18   2.0000      -1.382239       -37.6126
  19   2.0000      -1.040207       -28.3055
  20   2.0000      -1.028166       -27.9778
  21   2.0000      -0.886475       -24.1222
  22   2.0000      -0.861327       -23.4379
  23   2.0000      -0.860220       -23.4078
  24   2.0000      -0.859022       -23.3752
  25   2.0000      -0.855607       -23.2823
  26   2.0000      -0.686370       -18.6771
  27   2.0000      -0.681367       -18.5409
  28   2.0000      -0.676956       -18.4209
  29   2.0000      -0.676516       -18.4089
  30   2.0000      -0.668624       -18.1942
  31   2.0000      -0.660655       -17.9773
  32   2.0000      -0.548027       -14.9126
  33   2.0000      -0.523388       -14.2421
  34   2.0000      -0.522564       -14.2197
  35   2.0000      -0.520221       -14.1559
  36   2.0000      -0.520063       -14.1516
  37   2.0000      -0.503460       -13.6998
  38   2.0000      -0.502927       -13.6853
  39   2.0000      -0.501004       -13.6330
  40   2.0000      -0.497782       -13.5453
  41   2.0000      -0.497450       -13.5363
  42   2.0000      -0.429491       -11.6870
  43   2.0000      -0.414501       -11.2791
  44   2.0000      -0.403328       -10.9751
  45   2.0000      -0.381349       -10.3770
  46   2.0000      -0.372368       -10.1327
  47   2.0000      -0.367259        -9.9936
  48   2.0000      -0.349076        -9.4988
  49   2.0000      -0.336064        -9.1448
  50   0.0000       0.017790         0.4841
  51   0.0000       0.048220         1.3121
  52   0.0000       0.053763         1.4630
  53   0.0000       0.060667         1.6508
  54   0.0000       0.063274         1.7218

MULLIKEN ATOMIC CHARGES
-----------------------
   0 Zr:   -0.008249
   1 C :    0.117071
   2 C :    0.139740
   3 C :    0.027310
   4 H :    0.036811
   5 C :   -0.057007
   6 H :    0.007159
   7 C :    0.073424
   8 H :    0.007079
   9 H :   -0.038020
  10 C :    0.206565
  11 C :    0.059227
  12 C :   -0.086801
  13 H :    0.001844
  14 C :   -0.004272
  15 H :    0.015518
  16 C :    0.096389
  17 H :   -0.012315
  18 H :   -0.018546
  19 Cl:   -0.481515
  20 H :   -0.170139
  21 H :    0.025069
  22 H :    0.063656
Sum of atomic charges:    0.0000000

LOEWDIN ATOMIC CHARGES
----------------------
   0 Zr:    0.409315
   1 C :   -0.069161
   2 C :   -0.058756
   3 C :   -0.076379
   4 H :    0.007173
   5 C :   -0.053724
   6 H :    0.007617
   7 C :   -0.063355
   8 H :    0.007998
   9 H :    0.008560
  10 C :   -0.058092
  11 C :   -0.067685
  12 C :   -0.055158
  13 H :    0.001626
  14 C :   -0.072522
  15 H :    0.007187
  16 C :   -0.068422
  17 H :    0.009987
  18 H :    0.006258
  19 Cl:    0.184632
  20 H :   -0.015414
  21 H :    0.001157
  22 H :    0.007158

  Mayer bond orders larger than 0.100000
B(  0-Zr,  1-C ) :   0.2867 B(  0-Zr,  2-C ) :   0.3252 B(  0-Zr,  3-C ) :   0.4267
B(  0-Zr,  5-C ) :   0.3917 B(  0-Zr,  7-C ) :   0.3226 B(  0-Zr, 10-C ) :   0.2688
B(  0-Zr, 11-C ) :   0.2730 B(  0-Zr, 12-C ) :   0.4429 B(  0-Zr, 14-C ) :   0.4264
B(  0-Zr, 16-C ) :   0.3348 B(  0-Zr, 19-Cl) :   0.9308 B(  0-Zr, 20-H ) :   0.9308
B(  1-C ,  2-C ) :   1.2929 B(  1-C ,  3-C ) :   1.2877 B(  1-C , 21-H ) :   0.9581
B(  2-C ,  4-H ) :   0.9109 B(  2-C ,  5-C ) :   1.2707 B(  3-C ,  6-H ) :   0.9463
B(  3-C ,  7-C ) :   1.3129 B(  5-C ,  7-C ) :   1.2764 B(  5-C ,  8-H ) :   0.9616
B(  7-C ,  9-H ) :   0.9828 B( 10-C , 11-C ) :   1.2764 B( 10-C , 12-C ) :   1.2764
B( 10-C , 16-C ) :  -0.1149 B( 10-C , 22-H ) :   0.8924 B( 11-C , 13-H ) :   0.9753
B( 11-C , 14-C ) :   1.3126 B( 12-C , 15-H ) :   0.9749 B( 12-C , 16-C ) :   1.2244
B( 14-C , 16-C ) :   1.3402 B( 14-C , 17-H ) :   0.9518 B( 16-C , 18-H ) :   0.9851

FINAL SINGLE POINT ENERGY      -895.038652413317

DIPOLE MOMENT
-------------
                                X             Y             Z
Electronic contribution:     -0.01678      13.04532     -12.57647
Nuclear contribution   :      0.01059     -14.41688      13.08524
                        -----------------------------------------
Total Dipole Moment    :     -0.00619      -1.37155       0.50877
                        -----------------------------------------
Magnitude (a.u.)       :      1.46289
Magnitude (Debye)      :      3.71837

Rotational constants in cm-1:     0.033538     0.025044     0.018059
Rotational constants in MHz :  1005.445647   750.792016   541.402542

                             ****ORCA TERMINATED NORMALLY****
TOTAL RUN TIME: 0 days 0 hours 7 minutes 37 seconds 495 msec
