                         Program Version 4.2.0 -  RELEASE  -
|  1> #
|  2> # TMB01_T1 wB97X-V/Def2-TZVPPD
|  3> #
|  4> ! wb97x-v def2-tzvppd def2/jk grid4 nofinalgrid
|  5>
|  6> *xyz 0 1
|  7> Zr       0.019829   -0.026802    0.120636
|  8> C        2.239874   -0.374444    1.245397
|  9> C        1.976783   -1.521588    0.474285
| 10> C        2.416443    0.711808    0.354001
| 11> H        1.819060   -2.516470    0.858019
| 12> C        2.001810   -1.148643   -0.895658
| 13> H        2.608112    1.737773    0.630719
| 14> C        2.298913    0.223349   -0.961356
| 15> H        1.861573   -1.806504   -1.739184
| 16> H        2.356666    0.814844   -1.859655
| 17> C       -1.057190   -2.235373    0.523484
| 18> C       -1.856346   -1.294393    1.201077
| 19> C       -1.167009   -1.987955   -0.868757
| 20> H       -2.005770   -1.236737    2.266001
| 21> C       -2.451652   -0.457501    0.227470
| 22> H       -0.689853   -2.550694   -1.656100
| 23> C       -2.043033   -0.903228   -1.046149
| 24> H       -3.108339    0.375352    0.426641
| 25> H       -2.305042   -0.449162   -1.987488
| 26> Cl      -0.345437    1.661478   -1.736503
| 27> C       -1.133945    2.698822    1.012771
| 28> C       -0.495222    2.377308    1.980322
| 29> H       -1.676629    3.004729    0.150271
| 30> H       -0.029188    0.104247    1.943645
| 31> H        0.041631    2.180985    2.876056
| 32> H        2.316195   -0.336400    2.319120
| 33> H       -0.485725   -3.023975    0.985751
| 34> *
| 35>
| 36> %maxcore 5000
| 37>
| 38> %pal
| 39> nprocs = 24
| 40> end
| 41>
| 42>
| 43>                          ****END OF INPUT****

CARTESIAN COORDINATES (ANGSTROEM)
---------------------------------
  Zr     0.019829   -0.026802    0.120636
  C      2.239874   -0.374444    1.245397
  C      1.976783   -1.521588    0.474285
  C      2.416443    0.711808    0.354001
  H      1.819060   -2.516470    0.858019
  C      2.001810   -1.148643   -0.895658
  H      2.608112    1.737773    0.630719
  C      2.298913    0.223349   -0.961356
  H      1.861573   -1.806504   -1.739184
  H      2.356666    0.814844   -1.859655
  C     -1.057190   -2.235373    0.523484
  C     -1.856346   -1.294393    1.201077
  C     -1.167009   -1.987955   -0.868757
  H     -2.005770   -1.236737    2.266001
  C     -2.451652   -0.457501    0.227470
  H     -0.689853   -2.550694   -1.656100
  C     -2.043033   -0.903228   -1.046149
  H     -3.108339    0.375352    0.426641
  H     -2.305042   -0.449162   -1.987488
  Cl    -0.345437    1.661478   -1.736503
  C     -1.133945    2.698822    1.012771
  C     -0.495222    2.377308    1.980322
  H     -1.676629    3.004729    0.150271
  H     -0.029188    0.104247    1.943645
  H      0.041631    2.180985    2.876056
  H      2.316195   -0.336400    2.319120
  H     -0.485725   -3.023975    0.985751

 Total Charge           Charge          ....    0
 Multiplicity           Mult            ....    1
 Number of Electrons    NEL             ....  114
 Basis Dimension        Dim             ....  772

ORBITAL ENERGIES
----------------

  NO   OCC          E(Eh)            E(eV)
   0   2.0000    -101.439761     -2760.3162
   1   2.0000     -10.295914      -280.1661
   2   2.0000     -10.292037      -280.0606
   3   2.0000     -10.291014      -280.0327
   4   2.0000     -10.290952      -280.0310
   5   2.0000     -10.288018      -279.9512
   6   2.0000     -10.287395      -279.9343
   7   2.0000     -10.286706      -279.9155
   8   2.0000     -10.286602      -279.9127
   9   2.0000     -10.286423      -279.9078
  10   2.0000     -10.286064      -279.8980
  11   2.0000     -10.283420      -279.8261
  12   2.0000     -10.283288      -279.8225
  13   2.0000      -9.481227      -257.9973
  14   2.0000      -7.231746      -196.7858
  15   2.0000      -7.229330      -196.7201
  16   2.0000      -7.229091      -196.7136
  17   2.0000      -2.255043       -61.3629
  18   2.0000      -1.390002       -37.8239
  19   2.0000      -1.385031       -37.6886
  20   2.0000      -1.376385       -37.4533
  21   2.0000      -1.034632       -28.1538
  22   2.0000      -1.022885       -27.8341
  23   2.0000      -0.904868       -24.6227
  24   2.0000      -0.867830       -23.6149
  25   2.0000      -0.856044       -23.2941
  26   2.0000      -0.855129       -23.2692
  27   2.0000      -0.853532       -23.2258
  28   2.0000      -0.849307       -23.1108
  29   2.0000      -0.697946       -18.9921
  30   2.0000      -0.682048       -18.5595
  31   2.0000      -0.676775       -18.4160
  32   2.0000      -0.671771       -18.2798
  33   2.0000      -0.670530       -18.2460
  34   2.0000      -0.664000       -18.0684
  35   2.0000      -0.655056       -17.8250
  36   2.0000      -0.619577       -16.8595
  37   2.0000      -0.543973       -14.8023
  38   2.0000      -0.518974       -14.1220
  39   2.0000      -0.518286       -14.1033
  40   2.0000      -0.516070       -14.0430
  41   2.0000      -0.514081       -13.9889
  42   2.0000      -0.498779       -13.5725
  43   2.0000      -0.496909       -13.5216
  44   2.0000      -0.496003       -13.4969
  45   2.0000      -0.493350       -13.4247
  46   2.0000      -0.491293       -13.3688
  47   2.0000      -0.443373       -12.0648
  48   2.0000      -0.422732       -11.5031
  49   2.0000      -0.405972       -11.0471
  50   2.0000      -0.398048       -10.8314
  51   2.0000      -0.383760       -10.4426
  52   2.0000      -0.372203       -10.1282
  53   2.0000      -0.370581       -10.0840
  54   2.0000      -0.353474        -9.6185
  55   2.0000      -0.328875        -8.9492
  56   2.0000      -0.319770        -8.7014
  57   0.0000       0.038617         1.0508
  58   0.0000       0.047035         1.2799
  59   0.0000       0.056167         1.5284
  60   0.0000       0.057294         1.5590
  61   0.0000       0.063426         1.7259

MULLIKEN ATOMIC CHARGES
-----------------------
   0 Zr:   -0.868958
   1 C :    0.044661
   2 C :    0.230529
   3 C :    0.124295
   4 H :    0.070896
   5 C :    0.113408
   6 H :    0.063240
   7 C :   -0.093797
   8 H :    0.033679
   9 H :    0.085263
  10 C :    0.062453
  11 C :    0.003048
  12 C :    0.194902
  13 H :    0.064630
  14 C :    0.071516
  15 H :    0.036196
  16 C :   -0.001959
  17 H :    0.155459
  18 H :    0.028737
  19 Cl:   -0.551991
  20 C :   -0.044610
  21 C :    0.018143
  22 H :    0.101530
  23 H :   -0.099756
  24 H :    0.066354
  25 H :    0.048621
  26 H :    0.043511
Sum of atomic charges:   -0.0000000

LOEWDIN ATOMIC CHARGES
----------------------
   0 Zr:    0.498466
   1 C :   -0.062585
   2 C :   -0.057298
   3 C :   -0.053409
   4 H :    0.004970
   5 C :   -0.048317
   6 H :    0.011459
   7 C :   -0.084217
   8 H :    0.009678
   9 H :   -0.011595
  10 C :   -0.058160
  11 C :   -0.058489
  12 C :   -0.046634
  13 H :    0.003360
  14 C :   -0.055949
  15 H :    0.010259
  16 C :   -0.076841
  17 H :    0.008250
  18 H :   -0.008233
  19 Cl:    0.144373
  20 C :    0.045705
  21 C :    0.071842
  22 H :   -0.107275
  23 H :   -0.009788
  24 H :   -0.076637
  25 H :    0.002101
  26 H :    0.004963

  Mayer bond orders larger than 0.100000
B(  0-Zr,  1-C ) :   0.2779 B(  0-Zr,  2-C ) :   0.3490 B(  0-Zr,  3-C ) :   0.4774
B(  0-Zr,  5-C ) :   0.4986 B(  0-Zr,  7-C ) :   0.4621 B(  0-Zr,  8-H ) :   0.1132
B(  0-Zr, 10-C ) :   0.4839 B(  0-Zr, 11-C ) :   0.3180 B(  0-Zr, 12-C ) :   0.4156
B(  0-Zr, 14-C ) :   0.4926 B(  0-Zr, 15-H ) :   0.1198 B(  0-Zr, 16-C ) :   0.3323
B(  0-Zr, 19-Cl) :   0.7637 B(  0-Zr, 20-C ) :   0.2974 B(  0-Zr, 23-H ) :   0.9904
B(  1-C ,  2-C ) :   1.3490 B(  1-C ,  3-C ) :   1.3117 B(  1-C , 25-H ) :   0.9396
B(  2-C ,  4-H ) :   0.8557 B(  2-C ,  5-C ) :   1.1795 B(  3-C ,  6-H ) :   0.9118
B(  3-C ,  7-C ) :   1.2711 B(  5-C ,  7-C ) :   1.2842 B(  5-C ,  8-H ) :   0.9129
B(  7-C ,  9-H ) :   0.9587 B(  7-C , 19-Cl) :   0.1072 B( 10-C , 11-C ) :   1.3652
B( 10-C , 12-C ) :   1.2024 B( 10-C , 26-H ) :   0.8860 B( 11-C , 13-H ) :   0.9462
B( 11-C , 14-C ) :   1.3407 B( 12-C , 15-H ) :   0.8904 B( 12-C , 16-C ) :   1.2581
B( 14-C , 16-C ) :   1.3227 B( 14-C , 17-H ) :   0.8684 B( 14-C , 19-Cl) :  -0.1319
B( 16-C , 18-H ) :   0.9646 B( 20-C , 21-C ) :   2.9928 B( 20-C , 22-H ) :   0.8332
B( 21-C , 22-H ) :   0.1412 B( 21-C , 24-H ) :   0.9532

FINAL SINGLE POINT ENERGY      -972.364826359936

DIPOLE MOMENT
-------------
                                X             Y             Z
Electronic contribution:      0.48082       2.12146       2.54596
Nuclear contribution   :     -0.31433      -2.93943      -1.59819
                        -----------------------------------------
Total Dipole Moment    :      0.16649      -0.81797       0.94777
                        -----------------------------------------
Magnitude (a.u.)       :      1.26296
Magnitude (Debye)      :      3.21019

Rotational constants in cm-1:     0.021527     0.019953     0.016159
Rotational constants in MHz :   645.375909   598.178243   484.447118

                             ****ORCA TERMINATED NORMALLY****
TOTAL RUN TIME: 0 days 0 hours 12 minutes 24 seconds 73 msec
