                         Program Version 4.2.0 -  RELEASE  -
|  1> #
|  2> # TMB09_T1 wB97X-V/Def2-TZVPPD
|  3> #
|  4> ! wb97x-v def2-tzvppd def2/jk grid4 nofinalgrid
|  5>
|  6> *xyz 0 1
|  7> Mo       0.144293   -0.018278    0.187956
|  8> C       -1.882744   -1.070987   -0.485243
|  9> C       -1.076439    2.809087   -0.488683
| 10> H       -1.056313    3.572787    0.310053
| 11> H       -2.117393    2.730299   -0.852689
| 12> H       -0.453643    3.172151   -1.326804
| 13> C        1.996084   -2.290843   -0.946924
| 14> C        2.556730    1.794509   -0.039409
| 15> N       -0.610025    1.553803    0.004719
| 16> O        1.936938    0.565567   -0.322724
| 17> O        0.833025   -1.766355   -0.360705
| 18> H        1.780871   -2.689531   -1.957376
| 19> H        2.380311   -3.126092   -0.331250
| 20> H        2.779790   -1.516765   -1.025980
| 21> H        3.470410    1.892833   -0.654307
| 22> H        2.854397    1.863620    1.026056
| 23> H        1.897937    2.657406   -0.259961
| 24> C       -0.134457   -0.284271    2.087106
| 25> C       -1.864166   -1.358035    0.884748
| 26> H        0.299474   -1.167843    2.578202
| 27> H       -0.661177    0.399181    2.762773
| 28> H       -1.449974   -2.303708    1.234049
| 29> H       -2.567349   -0.858578    1.555883
| 30> C       -2.930318   -0.174171   -1.105185
| 31> H       -2.557155    0.344677   -2.001613
| 32> H       -3.799822   -0.779414   -1.421129
| 33> H       -3.293476    0.582538   -0.393193
| 34> H       -1.444854   -1.827941   -1.140932
| 35> *
| 36>
| 37> %maxcore 5000
| 38>
| 39> %pal
| 40> nprocs = 24
| 41> end
| 42>
| 43>
| 44>                          ****END OF INPUT****

CARTESIAN COORDINATES (ANGSTROEM)
---------------------------------
  Mo     0.144293   -0.018278    0.187956
  C     -1.882744   -1.070987   -0.485243
  C     -1.076439    2.809087   -0.488683
  H     -1.056313    3.572787    0.310053
  H     -2.117393    2.730299   -0.852689
  H     -0.453643    3.172151   -1.326804
  C      1.996084   -2.290843   -0.946924
  C      2.556730    1.794509   -0.039409
  N     -0.610025    1.553803    0.004719
  O      1.936938    0.565567   -0.322724
  O      0.833025   -1.766355   -0.360705
  H      1.780871   -2.689531   -1.957376
  H      2.380311   -3.126092   -0.331250
  H      2.779790   -1.516765   -1.025980
  H      3.470410    1.892833   -0.654307
  H      2.854397    1.863620    1.026056
  H      1.897937    2.657406   -0.259961
  C     -0.134457   -0.284271    2.087106
  C     -1.864166   -1.358035    0.884748
  H      0.299474   -1.167843    2.578202
  H     -0.661177    0.399181    2.762773
  H     -1.449974   -2.303708    1.234049
  H     -2.567349   -0.858578    1.555883
  C     -2.930318   -0.174171   -1.105185
  H     -2.557155    0.344677   -2.001613
  H     -3.799822   -0.779414   -1.421129
  H     -3.293476    0.582538   -0.393193
  H     -1.444854   -1.827941   -1.140932

 Total Charge           Charge          ....    0
 Multiplicity           Mult            ....    1
 Number of Electrons    NEL             ....   96
 Basis Dimension        Dim             ....  721

ORBITAL ENERGIES
----------------

  NO   OCC          E(Eh)            E(eV)
   0   2.0000     -19.171098      -521.6721
   1   2.0000     -19.170423      -521.6537
   2   2.0000     -14.407142      -392.0383
   3   2.0000     -10.313362      -280.6408
   4   2.0000     -10.305623      -280.4303
   5   2.0000     -10.293822      -280.1091
   6   2.0000     -10.293076      -280.0888
   7   2.0000     -10.292343      -280.0689
   8   2.0000     -10.286379      -279.9066
   9   2.0000     -10.277462      -279.6640
  10   2.0000      -2.743002       -74.6409
  11   2.0000      -1.750738       -47.6400
  12   2.0000      -1.738791       -47.3149
  13   2.0000      -1.730857       -47.0990
  14   2.0000      -1.084135       -29.5008
  15   2.0000      -1.075926       -29.2774
  16   2.0000      -0.971706       -26.4415
  17   2.0000      -0.938266       -25.5315
  18   2.0000      -0.834535       -22.7089
  19   2.0000      -0.783425       -21.3181
  20   2.0000      -0.771500       -20.9936
  21   2.0000      -0.765128       -20.8202
  22   2.0000      -0.745440       -20.2845
  23   2.0000      -0.695769       -18.9328
  24   2.0000      -0.602055       -16.3827
  25   2.0000      -0.567946       -15.4546
  26   2.0000      -0.561418       -15.2770
  27   2.0000      -0.558519       -15.1981
  28   2.0000      -0.552653       -15.0385
  29   2.0000      -0.547940       -14.9102
  30   2.0000      -0.540775       -14.7152
  31   2.0000      -0.535620       -14.5750
  32   2.0000      -0.528004       -14.3677
  33   2.0000      -0.522787       -14.2258
  34   2.0000      -0.520748       -14.1703
  35   2.0000      -0.501105       -13.6358
  36   2.0000      -0.495517       -13.4837
  37   2.0000      -0.488613       -13.2958
  38   2.0000      -0.464277       -12.6336
  39   2.0000      -0.453444       -12.3388
  40   2.0000      -0.419808       -11.4236
  41   2.0000      -0.397180       -10.8078
  42   2.0000      -0.388026       -10.5587
  43   2.0000      -0.367946       -10.0123
  44   2.0000      -0.363427        -9.8893
  45   2.0000      -0.346933        -9.4405
  46   2.0000      -0.336010        -9.1433
  47   2.0000      -0.309168        -8.4129
  48   0.0000       0.028105         0.7648
  49   0.0000       0.039365         1.0712
  50   0.0000       0.049802         1.3552
  51   0.0000       0.054837         1.4922
  52   0.0000       0.062204         1.6927

MULLIKEN ATOMIC CHARGES
-----------------------
   0 Mo:    0.565843
   1 C :    0.191765
   2 C :   -0.249281
   3 H :    0.080790
   4 H :    0.081194
   5 H :    0.114107
   6 C :   -0.149898
   7 C :   -0.030539
   8 N :   -0.527574
   9 O :   -0.500580
  10 O :   -0.365141
  11 H :    0.063729
  12 H :    0.047939
  13 H :    0.045387
  14 H :    0.032771
  15 H :    0.019681
  16 H :    0.003657
  17 C :    0.216401
  18 C :    0.190810
  19 H :    0.058892
  20 H :    0.045017
  21 H :    0.145271
  22 H :    0.093160
  23 C :   -0.516743
  24 H :    0.029949
  25 H :    0.087908
  26 H :    0.043556
  27 H :    0.181928
Sum of atomic charges:   -0.0000000

LOEWDIN ATOMIC CHARGES
----------------------
   0 Mo:    1.154345
   1 C :   -0.194487
   2 C :    0.011781
   3 H :   -0.006537
   4 H :   -0.020118
   5 H :   -0.007308
   6 C :   -0.002864
   7 C :   -0.022841
   8 N :   -0.115329
   9 O :   -0.350048
  10 O :   -0.340448
  11 H :   -0.006194
  12 H :   -0.005653
  13 H :   -0.023440
  14 H :   -0.006129
  15 H :   -0.007554
  16 H :   -0.025404
  17 C :    0.067190
  18 C :    0.069218
  19 H :   -0.084662
  20 H :   -0.090580
  21 H :   -0.017565
  22 H :   -0.009716
  23 C :    0.087045
  24 H :   -0.015024
  25 H :   -0.006715
  26 H :   -0.017500
  27 H :   -0.013463

  Mayer bond orders larger than 0.100000
B(  0-Mo,  1-C ) :   0.6928 B(  0-Mo,  2-C ) :   0.1130 B(  0-Mo,  8-N ) :   1.5836
B(  0-Mo,  9-O ) :   0.8435 B(  0-Mo, 10-O ) :   0.8707 B(  0-Mo, 17-C ) :   1.5954
B(  0-Mo, 18-C ) :   0.2560 B(  0-Mo, 23-C ) :   0.1893 B(  1-C , 10-O ) :  -0.1081
B(  1-C , 18-C ) :   1.0989 B(  1-C , 23-C ) :   1.0160 B(  1-C , 27-H ) :   0.9548
B(  2-C ,  3-H ) :   1.0271 B(  2-C ,  4-H ) :   0.9906 B(  2-C ,  5-H ) :   1.0008
B(  2-C ,  8-N ) :   0.6325 B(  6-C , 10-O ) :   0.9336 B(  6-C , 11-H ) :   1.0233
B(  6-C , 12-H ) :   1.0317 B(  6-C , 13-H ) :   1.0036 B(  7-C ,  9-O ) :   0.9715
B(  7-C , 14-H ) :   1.0397 B(  7-C , 15-H ) :   1.0147 B(  7-C , 16-H ) :   0.9870
B( 17-C , 18-C ) :   0.1884 B( 17-C , 19-H ) :   1.0302 B( 17-C , 20-H ) :   1.0299
B( 18-C , 21-H ) :   0.9713 B( 18-C , 22-H ) :   1.0211 B( 23-C , 24-H ) :   1.0088
B( 23-C , 25-H ) :   1.0162 B( 23-C , 26-H ) :   1.0066

FINAL SINGLE POINT ENERGY      -550.388079229183

DIPOLE MOMENT
-------------
                                X             Y             Z
Electronic contribution:     10.59727      -2.95755      13.30552
Nuclear contribution   :    -11.80214       3.30573     -13.02417
                        -----------------------------------------
Total Dipole Moment    :     -1.20486       0.34818       0.28135
                        -----------------------------------------
Magnitude (a.u.)       :      1.28533
Magnitude (Debye)      :      3.26705

Rotational constants in cm-1:     0.031577     0.026703     0.018834
Rotational constants in MHz :   946.666634   800.534327   564.625423

                             ****ORCA TERMINATED NORMALLY****
TOTAL RUN TIME: 0 days 0 hours 7 minutes 1 seconds 309 msec
