                         Program Version 4.2.0 -  RELEASE  -
|  1> #
|  2> # TMB06_T1 wB97X-V/Def2-TZVPPD
|  3> #
|  4> ! wb97x-v def2-tzvppd def2/jk grid4 nofinalgrid
|  5>
|  6> *xyz -2 1
|  7> C       -5.371545   -2.136160    0.336278
|  8> C       -4.697063   -0.763740    0.262018
|  9> O       -4.978822    0.003309   -0.707502
| 10> O       -3.902613   -0.505987    1.212120
| 11> C        2.635057   -0.678655    2.396830
| 12> S        2.063323    1.004526    1.938677
| 13> C        2.314937   -2.581636   -1.299530
| 14> S        0.864820   -2.286095   -0.358137
| 15> C        3.240953   -1.614445   -1.507242
| 16> S        2.972432   -0.000985   -0.910324
| 17> C       -0.891125    2.751712   -1.395439
| 18> S        0.528832    2.543841   -0.360303
| 19> C       -1.489329    1.702419   -2.015371
| 20> S       -0.828634    0.070077   -1.896647
| 21> W        0.627788    0.033115    0.107608
| 22> O       -2.320739    1.386691    1.151938
| 23> C       -0.689027   -0.837880    1.297595
| 24> C       -0.745952    0.472117    1.605961
| 25> H       -4.850130   -2.819358   -0.346804
| 26> H       -5.250819   -2.525653    1.350280
| 27> H        1.778524   -1.298220    2.681124
| 28> H        3.117621   -1.144410    1.536216
| 29> H       -3.029141    0.618126    1.100277
| 30> H       -2.171098    1.699602    0.245945
| 31> H       -1.140104   -1.782909    1.572954
| 32> H       -0.640990    1.084034    2.487860
| 33> H       -1.256518    3.767648   -1.529996
| 34> H       -2.404891    1.822493   -2.590760
| 35> H        3.371580   -0.608085    3.204035
| 36> H        2.423780   -3.583247   -1.710229
| 37> H        4.191166   -1.850203   -1.981855
| 38> H       -6.431678   -2.086675    0.066661
| 39> *
| 40>
| 41> %maxcore 5000
| 42>
| 43> %pal
| 44> nprocs = 24
| 45> end
| 46>
| 47>
| 48>                          ****END OF INPUT****

CARTESIAN COORDINATES (ANGSTROEM)
---------------------------------
  C     -5.371545   -2.136160    0.336278
  C     -4.697063   -0.763740    0.262018
  O     -4.978822    0.003309   -0.707502
  O     -3.902613   -0.505987    1.212120
  C      2.635057   -0.678655    2.396830
  S      2.063323    1.004526    1.938677
  C      2.314937   -2.581636   -1.299530
  S      0.864820   -2.286095   -0.358137
  C      3.240953   -1.614445   -1.507242
  S      2.972432   -0.000985   -0.910324
  C     -0.891125    2.751712   -1.395439
  S      0.528832    2.543841   -0.360303
  C     -1.489329    1.702419   -2.015371
  S     -0.828634    0.070077   -1.896647
  W      0.627788    0.033115    0.107608
  O     -2.320739    1.386691    1.151938
  C     -0.689027   -0.837880    1.297595
  C     -0.745952    0.472117    1.605961
  H     -4.850130   -2.819358   -0.346804
  H     -5.250819   -2.525653    1.350280
  H      1.778524   -1.298220    2.681124
  H      3.117621   -1.144410    1.536216
  H     -3.029141    0.618126    1.100277
  H     -2.171098    1.699602    0.245945
  H     -1.140104   -1.782909    1.572954
  H     -0.640990    1.084034    2.487860
  H     -1.256518    3.767648   -1.529996
  H     -2.404891    1.822493   -2.590760
  H      3.371580   -0.608085    3.204035
  H      2.423780   -3.583247   -1.710229
  H      4.191166   -1.850203   -1.981855
  H     -6.431678   -2.086675    0.066661

 Total Charge           Charge          ....   -2
 Multiplicity           Mult            ....    1
 Number of Electrons    NEL             ....  188
 Basis Dimension        Dim             .... 1005

ORBITAL ENERGIES
----------------

  NO   OCC          E(Eh)            E(eV)
   0   2.0000     -88.631909     -2411.7969
   1   2.0000     -88.611407     -2411.2390
   2   2.0000     -88.607563     -2411.1344
   3   2.0000     -88.598787     -2410.8956
   4   2.0000     -88.596486     -2410.8330
   5   2.0000     -18.978518      -516.4317
   6   2.0000     -18.937485      -515.3152
   7   2.0000     -18.921833      -514.8893
   8   2.0000     -10.137883      -275.8658
   9   2.0000     -10.088246      -274.5151
  10   2.0000     -10.081106      -274.3208
  11   2.0000     -10.079500      -274.2771
  12   2.0000     -10.073765      -274.1211
  13   2.0000     -10.071306      -274.0542
  14   2.0000     -10.069832      -274.0140
  15   2.0000     -10.057929      -273.6902
  16   2.0000     -10.040168      -273.2069
  17   2.0000      -7.810037      -212.5219
  18   2.0000      -7.790143      -211.9806
  19   2.0000      -7.785929      -211.8659
  20   2.0000      -7.777206      -211.6285
  21   2.0000      -7.775113      -211.5716
  22   2.0000      -5.765409      -156.8848
  23   2.0000      -5.760780      -156.7588
  24   2.0000      -5.759536      -156.7249
  25   2.0000      -5.745833      -156.3521
  26   2.0000      -5.741746      -156.2409
  27   2.0000      -5.740571      -156.2089
  28   2.0000      -5.739483      -156.1793
  29   2.0000      -5.737043      -156.1129
  30   2.0000      -5.734563      -156.0454
  31   2.0000      -5.733219      -156.0088
  32   2.0000      -5.731488      -155.9617
  33   2.0000      -5.728161      -155.8712
  34   2.0000      -5.726989      -155.8393
  35   2.0000      -5.725825      -155.8076
  36   2.0000      -5.722307      -155.7119
  37   2.0000      -2.901362       -78.9501
  38   2.0000      -1.543993       -42.0142
  39   2.0000      -1.538344       -41.8605
  40   2.0000      -1.534067       -41.7441
  41   2.0000      -0.935190       -25.4478
  42   2.0000      -0.896470       -24.3942
  43   2.0000      -0.835789       -22.7430
  44   2.0000      -0.733521       -19.9601
  45   2.0000      -0.713780       -19.4229
  46   2.0000      -0.669287       -18.2122
  47   2.0000      -0.655659       -17.8414
  48   2.0000      -0.641489       -17.4558
  49   2.0000      -0.628726       -17.1085
  50   2.0000      -0.607963       -16.5435
  51   2.0000      -0.559461       -15.2237
  52   2.0000      -0.539415       -14.6782
  53   2.0000      -0.508791       -13.8449
  54   2.0000      -0.458781       -12.4841
  55   2.0000      -0.439363       -11.9557
  56   2.0000      -0.431649       -11.7458
  57   2.0000      -0.415846       -11.3157
  58   2.0000      -0.381620       -10.3844
  59   2.0000      -0.376394       -10.2422
  60   2.0000      -0.363203        -9.8833
  61   2.0000      -0.358909        -9.7664
  62   2.0000      -0.337665        -9.1883
  63   2.0000      -0.330757        -9.0003
  64   2.0000      -0.326647        -8.8885
  65   2.0000      -0.319542        -8.6952
  66   2.0000      -0.318173        -8.6579
  67   2.0000      -0.305979        -8.3261
  68   2.0000      -0.284734        -7.7480
  69   2.0000      -0.271598        -7.3906
  70   2.0000      -0.265566        -7.2264
  71   2.0000      -0.255637        -6.9562
  72   2.0000      -0.242241        -6.5917
  73   2.0000      -0.241494        -6.5714
  74   2.0000      -0.231996        -6.3129
  75   2.0000      -0.224765        -6.1162
  76   2.0000      -0.214929        -5.8485
  77   2.0000      -0.203127        -5.5274
  78   2.0000      -0.195812        -5.3283
  79   2.0000      -0.177161        -4.8208
  80   2.0000      -0.168459        -4.5840
  81   2.0000      -0.161948        -4.4068
  82   2.0000      -0.145680        -3.9642
  83   2.0000      -0.140518        -3.8237
  84   2.0000      -0.133645        -3.6367
  85   2.0000      -0.131337        -3.5739
  86   2.0000      -0.119380        -3.2485
  87   2.0000      -0.118633        -3.2282
  88   2.0000      -0.113018        -3.0754
  89   2.0000      -0.107595        -2.9278
  90   2.0000      -0.090737        -2.4691
  91   2.0000      -0.081060        -2.2058
  92   2.0000      -0.065578        -1.7845
  93   2.0000      -0.037364        -1.0167
  94   0.0000       0.199507         5.4289
  95   0.0000       0.204623         5.5681
  96   0.0000       0.210552         5.7294
  97   0.0000       0.215411         5.8616
  98   0.0000       0.217962         5.9310

MULLIKEN ATOMIC CHARGES
-----------------------
   0 C :   -0.270071
   1 C :    0.567870
   2 O :   -0.662851
   3 O :   -0.556923
   4 C :    0.155230
   5 S :   -0.534710
   6 C :    0.237225
   7 S :   -0.373475
   8 C :    0.137001
   9 S :   -0.406248
  10 C :    0.215770
  11 S :   -0.449192
  12 C :    0.185140
  13 S :   -0.412236
  14 W :    0.101798
  15 O :   -0.491007
  16 C :    0.037036
  17 C :    0.550493
  18 H :   -0.004256
  19 H :    0.075525
  20 H :    0.033417
  21 H :   -0.028997
  22 H :    0.343033
  23 H :    0.226932
  24 H :   -0.233238
  25 H :   -0.144987
  26 H :   -0.096136
  27 H :   -0.099177
  28 H :    0.056831
  29 H :   -0.092492
  30 H :   -0.111583
  31 H :    0.044279
Sum of atomic charges:   -2.0000000

LOEWDIN ATOMIC CHARGES
----------------------
   0 C :    0.162439
   1 C :   -0.643300
   2 O :   -0.071761
   3 O :    0.035353
   4 C :   -0.316351
   5 S :    0.398638
   6 C :   -0.564657
   7 S :    0.597804
   8 C :   -0.596514
   9 S :    0.482654
  10 C :   -0.595220
  11 S :    0.467619
  12 C :   -0.577420
  13 S :    0.524748
  14 W :    0.170765
  15 O :    0.339609
  16 C :   -0.236641
  17 C :   -0.244341
  18 H :   -0.019424
  19 H :   -0.031948
  20 H :   -0.090584
  21 H :   -0.130063
  22 H :   -0.290007
  23 H :   -0.231776
  24 H :   -0.063213
  25 H :   -0.051634
  26 H :   -0.075330
  27 H :   -0.065844
  28 H :   -0.087823
  29 H :   -0.086492
  30 H :   -0.079401
  31 H :   -0.029888

  Mayer bond orders larger than 0.100000
B(  0-C ,  1-C ) :   0.9220 B(  0-C , 18-H ) :   1.0207 B(  0-C , 19-H ) :   1.0150
B(  0-C , 31-H ) :   1.0310 B(  1-C ,  2-O ) :   1.5813 B(  1-C ,  3-O ) :   1.4010
B(  3-O , 22-H ) :   0.2536 B(  4-C ,  5-S ) :   0.7884 B(  4-C ,  9-S ) :  -0.1094
B(  4-C , 20-H ) :   1.0100 B(  4-C , 21-H ) :   0.9420 B(  4-C , 28-H ) :   0.9827
B(  5-S , 14-W ) :   0.9269 B(  6-C ,  7-S ) :   0.9565 B(  6-C ,  8-C ) :   1.5070
B(  6-C , 29-H ) :   1.1407 B(  6-C , 30-H ) :  -0.1439 B(  7-S , 14-W ) :   1.1442
B(  8-C ,  9-S ) :   1.0558 B(  8-C , 29-H ) :  -0.1078 B(  8-C , 30-H ) :   1.1794
B(  9-S , 14-W ) :   0.9013 B( 10-C , 11-S ) :   1.0634 B( 10-C , 12-C ) :   1.3888
B( 10-C , 26-H ) :   1.1828 B( 10-C , 27-H ) :  -0.1904 B( 11-S , 14-W ) :   0.9070
B( 12-C , 13-S ) :   1.0393 B( 12-C , 26-H ) :  -0.1528 B( 12-C , 27-H ) :   1.2143
B( 13-S , 14-W ) :   1.0689 B( 14-W , 16-C ) :   1.3459 B( 14-W , 17-C ) :   0.8514
B( 15-O , 16-C ) :   0.1094 B( 15-O , 17-C ) :   0.1879 B( 15-O , 22-H ) :   0.6273
B( 15-O , 23-H ) :   0.9368 B( 16-C , 17-C ) :   1.2771 B( 16-C , 24-H ) :   0.9755
B( 17-C , 25-H ) :   1.0781

FINAL SINGLE POINT ENERGY     -2635.043637102113

DIPOLE MOMENT
-------------
                                X             Y             Z
Electronic contribution:     97.80809       9.27336      10.91150
Nuclear contribution   :    -95.08812     -10.49452     -10.64317
                        -----------------------------------------
Total Dipole Moment    :      2.71997      -1.22116       0.26833
                        -----------------------------------------
Magnitude (a.u.)       :      2.99357
Magnitude (Debye)      :      7.60905

Rotational constants in cm-1:     0.011727     0.005648     0.005281
Rotational constants in MHz :   351.552196   169.313101   158.324155

                             ****ORCA TERMINATED NORMALLY****
TOTAL RUN TIME: 0 days 0 hours 23 minutes 44 seconds 631 msec
