                         Program Version 4.2.0 -  RELEASE  -
|  1> #
|  2> # TMB08_T1 wB97X-V/Def2-TZVPPD
|  3> #
|  4> ! wb97x-v def2-tzvppd def2/jk grid4 nofinalgrid
|  5>
|  6> *xyz -1 1
|  7> O       -0.864683   -0.641223    1.501083
|  8> Mo       0.288309   -0.030923   -0.005993
|  9> O       -1.184159   -0.828813   -0.891579
| 10> S        2.210721   -0.462566    1.360243
| 11> C        3.288131   -1.501862    0.490518
| 12> C        2.967024   -1.951648   -0.740634
| 13> S        1.453819   -1.539049   -1.466752
| 14> S        0.162904    2.082815    1.150192
| 15> C        0.198674    3.373932   -0.002877
| 16> C        0.341525    3.101047   -1.316307
| 17> S        0.442237    1.474962   -1.896418
| 18> S       -2.702756   -1.277235    0.090908
| 19> C       -3.341924    0.299743    0.636465
| 20> H       -3.337931    0.314090    1.732942
| 21> H       -2.648387    1.079744    0.273451
| 22> H       -4.358042    0.459892    0.247281
| 23> C       -3.587204   -1.408361   -1.466934
| 24> H       -3.173718   -2.281309   -1.989593
| 25> H       -4.662596   -1.555426   -1.282985
| 26> H       -3.398030   -0.511824   -2.074907
| 27> C       -0.765264   -0.491871    2.877457
| 28> H       -0.827293    0.572940    3.181404
| 29> H       -1.595209   -1.039646    3.369476
| 30> H        0.192972   -0.897436    3.256104
| 31> H        3.640777   -2.597035   -1.314559
| 32> H        4.229728   -1.767232    0.982509
| 33> H        0.401774    3.897233   -2.066529
| 34> H        0.141166    4.396366    0.384198
| 35> *
| 36>
| 37> %maxcore 5000
| 38>
| 39> %pal
| 40> nprocs = 24
| 41> end
| 42>
| 43>
| 44>                          ****END OF INPUT****

CARTESIAN COORDINATES (ANGSTROEM)
---------------------------------
  O     -0.864683   -0.641223    1.501083
  Mo     0.288309   -0.030923   -0.005993
  O     -1.184159   -0.828813   -0.891579
  S      2.210721   -0.462566    1.360243
  C      3.288131   -1.501862    0.490518
  C      2.967024   -1.951648   -0.740634
  S      1.453819   -1.539049   -1.466752
  S      0.162904    2.082815    1.150192
  C      0.198674    3.373932   -0.002877
  C      0.341525    3.101047   -1.316307
  S      0.442237    1.474962   -1.896418
  S     -2.702756   -1.277235    0.090908
  C     -3.341924    0.299743    0.636465
  H     -3.337931    0.314090    1.732942
  H     -2.648387    1.079744    0.273451
  H     -4.358042    0.459892    0.247281
  C     -3.587204   -1.408361   -1.466934
  H     -3.173718   -2.281309   -1.989593
  H     -4.662596   -1.555426   -1.282985
  H     -3.398030   -0.511824   -2.074907
  C     -0.765264   -0.491871    2.877457
  H     -0.827293    0.572940    3.181404
  H     -1.595209   -1.039646    3.369476
  H      0.192972   -0.897436    3.256104
  H      3.640777   -2.597035   -1.314559
  H      4.229728   -1.767232    0.982509
  H      0.401774    3.897233   -2.066529
  H      0.141166    4.396366    0.384198

 Total Charge           Charge          ....   -1
 Multiplicity           Mult            ....    1
 Number of Electrons    NEL             ....  166
 Basis Dimension        Dim             ....  871

ORBITAL ENERGIES
----------------

  NO   OCC          E(Eh)            E(eV)
   0   2.0000     -88.849375     -2417.7144
   1   2.0000     -88.694960     -2413.5126
   2   2.0000     -88.693020     -2413.4598
   3   2.0000     -88.692037     -2413.4330
   4   2.0000     -88.691104     -2413.4076
   5   2.0000     -19.106112      -519.9037
   6   2.0000     -19.072478      -518.9885
   7   2.0000     -10.215444      -277.9764
   8   2.0000     -10.214395      -277.9478
   9   2.0000     -10.187750      -277.2228
  10   2.0000     -10.152786      -276.2714
  11   2.0000     -10.151947      -276.2485
  12   2.0000     -10.151348      -276.2322
  13   2.0000     -10.150495      -276.2090
  14   2.0000      -8.018752      -218.2013
  15   2.0000      -7.874403      -214.2734
  16   2.0000      -7.872235      -214.2144
  17   2.0000      -7.871076      -214.1829
  18   2.0000      -7.870002      -214.1537
  19   2.0000      -5.973601      -162.5499
  20   2.0000      -5.972171      -162.5110
  21   2.0000      -5.967734      -162.3903
  22   2.0000      -5.829725      -158.6349
  23   2.0000      -5.827542      -158.5755
  24   2.0000      -5.826435      -158.5454
  25   2.0000      -5.825470      -158.5191
  26   2.0000      -5.824788      -158.5005
  27   2.0000      -5.824109      -158.4821
  28   2.0000      -5.822393      -158.4354
  29   2.0000      -5.822202      -158.4302
  30   2.0000      -5.821583      -158.4133
  31   2.0000      -5.820647      -158.3879
  32   2.0000      -5.820230      -158.3765
  33   2.0000      -5.819774      -158.3641
  34   2.0000      -2.593313       -70.5676
  35   2.0000      -1.599580       -43.5268
  36   2.0000      -1.591228       -43.2995
  37   2.0000      -1.574551       -42.8457
  38   2.0000      -0.991293       -26.9745
  39   2.0000      -0.961005       -26.1503
  40   2.0000      -0.852630       -23.2012
  41   2.0000      -0.808458       -21.9993
  42   2.0000      -0.805556       -21.9203
  43   2.0000      -0.761482       -20.7210
  44   2.0000      -0.704605       -19.1733
  45   2.0000      -0.701583       -19.0910
  46   2.0000      -0.668609       -18.1938
  47   2.0000      -0.650356       -17.6971
  48   2.0000      -0.633285       -17.2326
  49   2.0000      -0.618970       -16.8430
  50   2.0000      -0.504738       -13.7346
  51   2.0000      -0.499975       -13.6050
  52   2.0000      -0.494768       -13.4633
  53   2.0000      -0.489573       -13.3220
  54   2.0000      -0.475800       -12.9472
  55   2.0000      -0.452676       -12.3179
  56   2.0000      -0.449464       -12.2305
  57   2.0000      -0.446897       -12.1607
  58   2.0000      -0.438937       -11.9441
  59   2.0000      -0.437644       -11.9089
  60   2.0000      -0.425119       -11.5681
  61   2.0000      -0.406817       -11.0700
  62   2.0000      -0.388746       -10.5783
  63   2.0000      -0.367563       -10.0019
  64   2.0000      -0.353842        -9.6285
  65   2.0000      -0.338103        -9.2003
  66   2.0000      -0.333749        -9.0818
  67   2.0000      -0.324021        -8.8171
  68   2.0000      -0.316041        -8.5999
  69   2.0000      -0.307513        -8.3678
  70   2.0000      -0.298072        -8.1110
  71   2.0000      -0.286078        -7.7846
  72   2.0000      -0.266405        -7.2492
  73   2.0000      -0.262879        -7.1533
  74   2.0000      -0.255878        -6.9628
  75   2.0000      -0.235723        -6.4143
  76   2.0000      -0.217930        -5.9302
  77   2.0000      -0.211458        -5.7541
  78   2.0000      -0.198087        -5.3902
  79   2.0000      -0.191286        -5.2051
  80   2.0000      -0.166765        -4.5379
  81   2.0000      -0.136809        -3.7228
  82   2.0000      -0.121089        -3.2950
  83   0.0000       0.108335         2.9479
  84   0.0000       0.126744         3.4489
  85   0.0000       0.133554         3.6342
  86   0.0000       0.136555         3.7159
  87   0.0000       0.141113         3.8399

MULLIKEN ATOMIC CHARGES
-----------------------
   0 O :   -0.303121
   1 Mo:    0.136749
   2 O :   -0.283996
   3 S :   -0.331556
   4 C :    0.185895
   5 C :    0.230039
   6 S :   -0.327448
   7 S :   -0.353442
   8 C :    0.163463
   9 C :    0.196721
  10 S :   -0.311140
  11 S :    0.125743
  12 C :    0.175805
  13 H :    0.040522
  14 H :   -0.111371
  15 H :    0.120490
  16 C :   -0.122036
  17 H :    0.069242
  18 H :    0.081673
  19 H :    0.068682
  20 C :   -0.206511
  21 H :    0.061965
  22 H :    0.029180
  23 H :    0.030559
  24 H :   -0.102138
  25 H :   -0.084758
  26 H :   -0.089060
  27 H :   -0.090154
Sum of atomic charges:   -1.0000000

LOEWDIN ATOMIC CHARGES
----------------------
   0 O :   -0.544483
   1 Mo:    0.342224
   2 O :   -0.681365
   3 S :    0.546794
   4 C :   -0.607933
   5 C :   -0.612439
   6 S :    0.531989
   7 S :    0.546368
   8 C :   -0.609797
   9 C :   -0.627525
  10 S :    0.513043
  11 S :    1.044940
  12 C :   -0.058152
  13 H :   -0.043501
  14 H :   -0.041731
  15 H :   -0.039947
  16 C :   -0.087189
  17 H :   -0.040677
  18 H :   -0.045997
  19 H :   -0.030007
  20 C :   -0.081107
  21 H :   -0.042628
  22 H :   -0.006147
  23 H :   -0.038913
  24 H :   -0.070566
  25 H :   -0.071464
  26 H :   -0.071607
  27 H :   -0.072186

  Mayer bond orders larger than 0.100000
B(  0-O ,  1-Mo) :   0.5865 B(  0-O , 11-S ) :   0.1600 B(  0-O , 20-C ) :   1.0282
B(  1-Mo,  2-O ) :   0.9014 B(  1-Mo,  3-S ) :   1.2464 B(  1-Mo,  6-S ) :   1.2841
B(  1-Mo,  7-S ) :   1.0483 B(  1-Mo, 10-S ) :   1.1459 B(  1-Mo, 11-S ) :   0.2571
B(  2-O , 11-S ) :   0.7765 B(  3-S ,  4-C ) :   0.9493 B(  4-C ,  5-C ) :   1.6751
B(  4-C , 24-H ) :  -0.1436 B(  4-C , 25-H ) :   1.1507 B(  5-C ,  6-S ) :   0.9656
B(  5-C , 24-H ) :   1.1482 B(  5-C , 25-H ) :  -0.1432 B(  7-S ,  8-C ) :   0.9765
B(  8-C ,  9-C ) :   1.6772 B(  8-C , 26-H ) :  -0.1337 B(  8-C , 27-H ) :   1.1528
B(  9-C , 10-S ) :   0.9902 B(  9-C , 26-H ) :   1.1219 B(  9-C , 27-H ) :  -0.1304
B( 11-S , 12-C ) :   0.7278 B( 11-S , 14-H ) :   0.1471 B( 11-S , 16-C ) :   0.8352
B( 12-C , 13-H ) :   0.9897 B( 12-C , 14-H ) :   0.9523 B( 12-C , 15-H ) :   0.9503
B( 16-C , 17-H ) :   0.9862 B( 16-C , 18-H ) :   1.0078 B( 16-C , 19-H ) :   0.9877
B( 20-C , 21-H ) :   1.0076 B( 20-C , 22-H ) :   1.0008 B( 20-C , 23-H ) :   1.0192

FINAL SINGLE POINT ENERGY     -2484.102100298367

DIPOLE MOMENT
-------------
                                X             Y             Z
Electronic contribution:     27.39007      -2.57673      -3.80759
Nuclear contribution   :    -30.46451       1.96400       4.17914
                        -----------------------------------------
Total Dipole Moment    :     -3.07444      -0.61273       0.37155
                        -----------------------------------------
Magnitude (a.u.)       :      3.15685
Magnitude (Debye)      :      8.02407

Rotational constants in cm-1:     0.012781     0.009890     0.008747
Rotational constants in MHz :   383.176431   296.486696   262.216571

                             ****ORCA TERMINATED NORMALLY****
TOTAL RUN TIME: 0 days 0 hours 15 minutes 43 seconds 761 msec
