                         Program Version 4.2.0 -  RELEASE  -
|  1> #
|  2> # TMB10_C1 wB97X-V/Def2-TZVPPD
|  3> #
|  4> ! wb97x-v def2-tzvppd def2/jk grid4 nofinalgrid
|  5>
|  6> *xyz 0 1
|  7> Mo       0.133298    0.019814    0.066207
|  8> C       -1.075332   -1.355629   -0.909336
|  9> C       -2.072844    2.216315    0.675821
| 10> H       -2.495915    2.026095    1.680930
| 11> H       -2.910608    2.260759   -0.044542
| 12> H       -1.592380    3.211696    0.695601
| 13> C        3.010907   -1.316541   -0.054396
| 14> C        1.366704    2.705574   -0.540684
| 15> N       -1.143030    1.200231    0.316847
| 16> O        1.491405    1.304940   -0.439122
| 17> O        1.615447   -1.247555   -0.063202
| 18> H        3.367194   -2.025819   -0.825669
| 19> H        3.385726   -1.672276    0.926079
| 20> H        3.451946   -0.322838   -0.260301
| 21> H        2.294131    3.111318   -0.982908
| 22> H        1.229038    3.178184    0.450904
| 23> H        0.520365    2.998986   -1.190253
| 24> C       -0.462062   -1.067727    1.747714
| 25> C       -1.245054   -1.851214    0.615257
| 26> H        0.321659   -1.674412    2.211474
| 27> H       -1.131198   -0.604236    2.478956
| 28> H       -0.901967   -2.892720    0.638908
| 29> H       -2.316994   -1.775934    0.836451
| 30> C       -2.372818   -1.072037   -1.638655
| 31> H       -2.166926   -0.639290   -2.630957
| 32> H       -2.958163   -1.996472   -1.801781
| 33> H       -3.005382   -0.361002   -1.085358
| 34> H       -0.439666   -2.067375   -1.451890
| 35> *
| 36>
| 37> %maxcore 5000
| 38>
| 39> %pal
| 40> nprocs = 24
| 41> end
| 42>
| 43>
| 44>                          ****END OF INPUT****

CARTESIAN COORDINATES (ANGSTROEM)
---------------------------------
  Mo     0.133298    0.019814    0.066207
  C     -1.075332   -1.355629   -0.909336
  C     -2.072844    2.216315    0.675821
  H     -2.495915    2.026095    1.680930
  H     -2.910608    2.260759   -0.044542
  H     -1.592380    3.211696    0.695601
  C      3.010907   -1.316541   -0.054396
  C      1.366704    2.705574   -0.540684
  N     -1.143030    1.200231    0.316847
  O      1.491405    1.304940   -0.439122
  O      1.615447   -1.247555   -0.063202
  H      3.367194   -2.025819   -0.825669
  H      3.385726   -1.672276    0.926079
  H      3.451946   -0.322838   -0.260301
  H      2.294131    3.111318   -0.982908
  H      1.229038    3.178184    0.450904
  H      0.520365    2.998986   -1.190253
  C     -0.462062   -1.067727    1.747714
  C     -1.245054   -1.851214    0.615257
  H      0.321659   -1.674412    2.211474
  H     -1.131198   -0.604236    2.478956
  H     -0.901967   -2.892720    0.638908
  H     -2.316994   -1.775934    0.836451
  C     -2.372818   -1.072037   -1.638655
  H     -2.166926   -0.639290   -2.630957
  H     -2.958163   -1.996472   -1.801781
  H     -3.005382   -0.361002   -1.085358
  H     -0.439666   -2.067375   -1.451890

 Total Charge           Charge          ....    0
 Multiplicity           Mult            ....    1
 Number of Electrons    NEL             ....   96
 Basis Dimension        Dim             ....  721

ORBITAL ENERGIES
----------------

  NO   OCC          E(Eh)            E(eV)
   0   2.0000     -19.187007      -522.1050
   1   2.0000     -19.167985      -521.5874
   2   2.0000     -14.414085      -392.2272
   3   2.0000     -10.309461      -280.5347
   4   2.0000     -10.304985      -280.4129
   5   2.0000     -10.302333      -280.3407
   6   2.0000     -10.291307      -280.0407
   7   2.0000     -10.289298      -279.9860
   8   2.0000     -10.279790      -279.7273
   9   2.0000     -10.271261      -279.4952
  10   2.0000      -2.752899       -74.9102
  11   2.0000      -1.756804       -47.8051
  12   2.0000      -1.752961       -47.7005
  13   2.0000      -1.738627       -47.3104
  14   2.0000      -1.093594       -29.7582
  15   2.0000      -1.080723       -29.4080
  16   2.0000      -0.977761       -26.6062
  17   2.0000      -0.931424       -25.3453
  18   2.0000      -0.861370       -23.4391
  19   2.0000      -0.778689       -21.1892
  20   2.0000      -0.773991       -21.0614
  21   2.0000      -0.761952       -20.7338
  22   2.0000      -0.747060       -20.3285
  23   2.0000      -0.683872       -18.6091
  24   2.0000      -0.600649       -16.3445
  25   2.0000      -0.578488       -15.7414
  26   2.0000      -0.571706       -15.5569
  27   2.0000      -0.561247       -15.2723
  28   2.0000      -0.555630       -15.1195
  29   2.0000      -0.546202       -14.8629
  30   2.0000      -0.544217       -14.8089
  31   2.0000      -0.535465       -14.5707
  32   2.0000      -0.531699       -14.4683
  33   2.0000      -0.525231       -14.2923
  34   2.0000      -0.519682       -14.1413
  35   2.0000      -0.504325       -13.7234
  36   2.0000      -0.493952       -13.4411
  37   2.0000      -0.490007       -13.3338
  38   2.0000      -0.456004       -12.4085
  39   2.0000      -0.447425       -12.1751
  40   2.0000      -0.420106       -11.4317
  41   2.0000      -0.401486       -10.9250
  42   2.0000      -0.395262       -10.7556
  43   2.0000      -0.367830       -10.0092
  44   2.0000      -0.363821        -9.9001
  45   2.0000      -0.349096        -9.4994
  46   2.0000      -0.340549        -9.2668
  47   2.0000      -0.329209        -8.9582
  48   0.0000       0.023593         0.6420
  49   0.0000       0.036586         0.9955
  50   0.0000       0.043338         1.1793
  51   0.0000       0.050709         1.3799
  52   0.0000       0.062197         1.6925

MULLIKEN ATOMIC CHARGES
-----------------------
   0 Mo:    0.419218
   1 C :    0.695047
   2 C :   -0.250452
   3 H :    0.084003
   4 H :    0.085609
   5 H :    0.108071
   6 C :   -0.181318
   7 C :   -0.057595
   8 N :   -0.489616
   9 O :   -0.487230
  10 O :   -0.346394
  11 H :    0.037899
  12 H :    0.055510
  13 H :    0.063707
  14 H :    0.013349
  15 H :    0.035010
  16 H :    0.036086
  17 C :    0.138527
  18 C :    0.048586
  19 H :    0.044311
  20 H :    0.001461
  21 H :    0.116637
  22 H :    0.059295
  23 C :   -0.512840
  24 H :    0.030860
  25 H :    0.092468
  26 H :    0.007868
  27 H :    0.151924
Sum of atomic charges:   -0.0000000

LOEWDIN ATOMIC CHARGES
----------------------
   0 Mo:    1.218707
   1 C :   -0.214832
   2 C :    0.024243
   3 H :   -0.005978
   4 H :   -0.009238
   5 H :   -0.011581
   6 C :   -0.007096
   7 C :   -0.022594
   8 N :   -0.103628
   9 O :   -0.327294
  10 O :   -0.333191
  11 H :   -0.005925
  12 H :   -0.005199
  13 H :   -0.016166
  14 H :   -0.004998
  15 H :   -0.010027
  16 H :   -0.014077
  17 C :   -0.014103
  18 C :   -0.068815
  19 H :   -0.049085
  20 H :   -0.052639
  21 H :    0.013007
  22 H :    0.008899
  23 C :    0.079469
  24 H :   -0.012417
  25 H :   -0.008069
  26 H :   -0.025396
  27 H :   -0.021975

  Mayer bond orders larger than 0.100000
B(  0-Mo,  1-C ) :   0.8997 B(  0-Mo,  2-C ) :   0.1271 B(  0-Mo,  8-N ) :   1.4899
B(  0-Mo,  9-O ) :   0.9341 B(  0-Mo, 10-O ) :   0.9422 B(  0-Mo, 17-C ) :   0.9808
B(  0-Mo, 18-C ) :   0.3049 B(  0-Mo, 19-H ) :   0.1158 B(  0-Mo, 23-C ) :   0.1261
B(  1-C , 10-O ) :  -0.1671 B(  1-C , 18-C ) :   0.7793 B(  1-C , 23-C ) :   0.8798
B(  1-C , 27-H ) :   0.9759 B(  2-C ,  3-H ) :   1.0127 B(  2-C ,  4-H ) :   1.0057
B(  2-C ,  5-H ) :   0.9990 B(  2-C ,  8-N ) :   0.6089 B(  6-C , 10-O ) :   0.9626
B(  6-C , 11-H ) :   1.0329 B(  6-C , 12-H ) :   1.0149 B(  6-C , 13-H ) :   1.0112
B(  7-C ,  9-O ) :   0.9450 B(  7-C , 14-H ) :   1.0598 B(  7-C , 15-H ) :   1.0077
B(  7-C , 16-H ) :   0.9890 B( 10-O , 17-C ) :  -0.1718 B( 17-C , 18-C ) :   0.9108
B( 17-C , 19-H ) :   0.9944 B( 17-C , 20-H ) :   1.0320 B( 18-C , 21-H ) :   0.9902
B( 18-C , 22-H ) :   1.0594 B( 23-C , 24-H ) :   1.0141 B( 23-C , 25-H ) :   1.0168
B( 23-C , 26-H ) :   0.9978

FINAL SINGLE POINT ENERGY      -550.416853969365

DIPOLE MOMENT
-------------
                                X             Y             Z
Electronic contribution:     11.02114       0.85666       4.63895
Nuclear contribution   :    -12.16779      -0.65832      -4.35638
                        -----------------------------------------
Total Dipole Moment    :     -1.14665       0.19834       0.28257
                        -----------------------------------------
Magnitude (a.u.)       :      1.19749
Magnitude (Debye)      :      3.04379

Rotational constants in cm-1:     0.031161     0.027931     0.019091
Rotational constants in MHz :   934.171856   837.337056   572.342467

                             ****ORCA TERMINATED NORMALLY****
TOTAL RUN TIME: 0 days 0 hours 6 minutes 3 seconds 355 msec
