                         Program Version 4.2.0 -  RELEASE  -
|  1> # input to generate an atomic fitting density for Mo
|  2> # this file is use internally by ORCA
|  3> #
|  4> # atomic ground state (S=5): 1s2 2s2 2p6 3s2 3p6 4s2 3d10 4p6 5s2 4d4
|  5> #
|  6> ! RHF AllowRHF def2-SVP def2/J  NoMulliken NoLoewdin NoMayer NoPrintMOs
|  7>
|  8> %output print[p_atomdensfit] 2 end
|  9>
| 10> %scf
| 11>   guess hcore
| 12>   maxiter 1000
| 13>   maxdisk 500000
| 14>   SCFMode Conventional
| 15>   lshift 0.600000
| 16>   hftyp rohf
| 17>   rohf_case sahf
| 18>   rohf_numop   2
| 19>   rohf_norb[1] 5
| 20>   rohf_nel[1]  4
| 21> end
| 22>
| 23> %basis
| 24>   NewECP 42
| 25>     N_core 28
| 26>     lmax f
| 27>     s 4
| 28>       1       9.7145938000    180.1031085000  2
| 29>       2       4.6805004000     24.9972279000  2
| 30>       3       9.4500000000     24.8051771000  2
| 31>       4       4.7200000000      4.1537815000  2
| 32>     p 4
| 33>       1       8.1421366000    123.7727523000  2
| 34>       2       4.6259863000     19.5302280000  2
| 35>       3       9.4500000000     24.8051771000  2
| 36>       4       4.7200000000      4.1537815000  2
| 37>     d 4
| 38>       1       6.6184148000     48.3750223000  2
| 39>       2       3.2487516000      8.8920527000  2
| 40>       3       9.4500000000     24.8051771000  2
| 41>       4       4.7200000000      4.1537815000  2
| 42>     f 2
| 43>       1       9.4500000000    -24.8051771000  2
| 44>       2       4.7200000000     -4.1537815000  2
| 45>   end
| 46>   NewGTO 42
| 47>     s 2
| 48>      1      14.0000000000     -2.0770233737
| 49>      2      12.5000000000      3.0616178399
| 50>     s 1
| 51>      1       4.0921501803      1.0000000000
| 52>     s 1
| 53>      1       0.9705360259      1.0000000000
| 54>     s 1
| 55>      1       0.4421762017      1.0000000000
| 56>     s 1
| 57>      1       0.0929150243      1.0000000000
| 58>     s 1
| 59>      1       0.0350163144      1.0000000000
| 60>     p 4
| 61>      1       8.8931117915      0.0830010811
| 62>      2       5.4689112270     -0.2792276027
| 63>      3       1.3548473007      0.5492197283
| 64>      4       0.6549486746      0.5789213489
| 65>     p 1
| 66>      1       0.3042819747      1.0000000000
| 67>     p 1
| 68>      1       0.1000000000      1.0000000000
| 69>     p 1
| 70>      1       0.0330000000      1.0000000000
| 71>     d 3
| 72>      1       5.0044445497     -0.0359172347
| 73>      2       1.7736823324      0.3487122377
| 74>      3       0.7695059170      0.7275979769
| 75>     d 1
| 76>      1       0.3153087894      1.0000000000
| 77>     d 1
| 78>      1       0.1175437439      1.0000000000
| 79>   end
| 80>   NewAuxGTO 42
| 81>     S 1
| 82>      1 1310.72 1.0
| 83>     S 1
| 84>      1  655.36 1.0
| 85>     S 1
| 86>      1  327.68 1.0
| 87>     S 1
| 88>      1  163.84 1.0
| 89>     S 1
| 90>      1   81.82 1.0
| 91>     S 1
| 92>      1   40.96 1.0
| 93>     S 1
| 94>      1   20.48 1.0
| 95>     S 1
| 96>      1   10.24 1.0
| 97>     S 1
| 98>      1    5.12 1.0
| 99>     S 1
|100>      1    2.56 1.0
|101>     S 1
|102>      1    1.28 1.0
|103>     S 1
|104>      1    0.64 1.0
|105>     S 1
|106>      1    0.32 1.0
|107>     S 1
|108>      1    0.16 1.0
|109>     S 1
|110>      1    0.08 1.0
|111>     S 1
|112>      1    0.04 1.0
|113>     S 1
|114>      1    0.02 1.0
|115>     S 1
|116>      1    0.01 1.0
|117>   end
|118> end
|119>
|120> * xyz 0 5
|121> 42  0.0 0.0 0.0
|122> *
|123>
|124>
|125>                          ****END OF INPUT****

CARTESIAN COORDINATES (ANGSTROEM)
---------------------------------
  Mo     0.000000    0.000000    0.000000

 Total Charge           Charge          ....    0
 Multiplicity           Mult            ....    5
 Number of Electrons    NEL             ....   14
 Basis Dimension        Dim             ....   33

ORBITAL ENERGIES
----------------

  NO   OCC          E(Eh)            E(eV)
   0   2.0000      -3.060219       -83.2728
   1   2.0000      -1.903519       -51.7974
   2   2.0000      -1.902765       -51.7769
   3   2.0000      -1.901402       -51.7398
   4   2.0000      -0.367847       -10.0096
   5   0.8000      -0.405073       -11.0226
   6   0.8000      -0.402729       -10.9588
   7   0.8000      -0.401201       -10.9172
   8   0.8000      -0.302522        -8.2320
   9   0.8000      -0.167718        -4.5638
  10   0.0000      -0.023360        -0.6357
  11   0.0000      -0.022787        -0.6201
  12   0.0000      -0.045915        -1.2494
  13   0.0000       0.097407         2.6506
  14   0.0000       0.136701         3.7198

CleanUpVectors: The p-vectors have cracked symmetry
CleanUpVectors: The p-vectors have cracked symmetry
CleanUpVectors: The p-vectors have cracked symmetry
CleanUpVectors: The d-vectors have cracked symmetry at i=4
CleanUpVectors: The d-vectors have cracked symmetry at i=6
CleanUpVectors: The d-vectors have cracked symmetry at i=7
CleanUpVectors: The d-vectors have cracked symmetry at i=8
CleanUpVectors: The p-vectors have cracked symmetry
CleanUpVectors: The p-vectors have cracked symmetry
CleanUpVectors: The p-vectors have cracked symmetry
CleanUpVectors: The d-vectors have cracked symmetry at i=12
CleanUpVectors: The p-vectors have cracked symmetry
CleanUpVectors: The p-vectors have cracked symmetry
CleanUpVectors: The p-vectors have cracked symmetry
CleanUpVectors: The d-vectors have cracked symmetry at i=17
CleanUpVectors: The d-vectors have cracked symmetry at i=18
CleanUpVectors: The d-vectors have cracked symmetry at i=19
CleanUpVectors: The d-vectors have cracked symmetry at i=20
CleanUpVectors: The d-vectors have cracked symmetry at i=21
CleanUpVectors: The p-vectors have cracked symmetry
CleanUpVectors: The p-vectors have cracked symmetry
CleanUpVectors: The p-vectors have cracked symmetry
CleanUpVectors: The d-vectors have cracked symmetry at i=25
CleanUpVectors: The d-vectors have cracked symmetry at i=26
CleanUpVectors: The d-vectors have cracked symmetry at i=28
--------------------------
ATOM BASIS FOR ELEMENT Mo
--------------------------
 NewGTO Mo
 S 7
    1         14.000000000000        -0.287430790565
    2         12.500000000000         0.423684801660
    3          4.092150180300        -0.621648828845
    4          0.970536025900         0.839714582886
    5          0.442176201700         0.451289343746
    6          0.092915024300         0.013552346651
    7          0.035016314400        -0.003198660985
 P 19
    1          8.893111791500        -0.002395616491
    2          5.468911227000         0.008059199240
    3          1.354847300700        -0.015851839768
    4          0.654948674600        -0.016709102001
    5          8.893111791500        -0.001809210759
    6          5.468911227000         0.006086445820
    7          1.354847300700        -0.011971581918
    8          0.654948674600        -0.012619001094
    9          8.893111791500        -0.071526131033
   10          5.468911227000         0.240624216386
   11          1.354847300700        -0.473289766011
   12          0.654948674600        -0.498885119454
   13          0.304281974700        -0.005746031573
   14          0.304281974700        -0.004339501830
   15          0.304281974700        -0.171559767097
   16          0.100000000000        -0.000291764169
   17          0.100000000000        -0.000220345316
   18          0.100000000000        -0.008711228307
   19          0.033000000000         0.000016098443
 D 19
    1         14.000000000000         0.000006011275
    2         12.500000000000        -0.000009924170
    3          4.092150180300         0.000048454571
    4          0.970536025900        -0.000338625030
    5          0.442176201700        -0.001038252283
    6          0.092915024300         0.010088691784
    7          0.035016314400         0.019258073403
    8          5.004444549700        -0.014169350288
    9          1.773682332400         0.137566989408
   10          0.769505917000         0.287037426164
   11          5.004444549700         0.008757587495
   12          1.773682332400        -0.085025419071
   13          0.769505917000        -0.177407949056
   14          5.004444549700         0.001010246119
   15          1.773682332400        -0.009808249100
   16          0.769505917000        -0.020465190007
   17          5.004444549700        -0.012192806986
   18          1.773682332400         0.118377181413
   19          0.769505917000         0.246997347370
 D 19
    1         14.000000000000        -0.000166888060
    2         12.500000000000         0.000275519845
    3          4.092150180300        -0.001284093329
    4          0.970536025900         0.007834795772
    5          0.442176201700         0.023562944099
    6          0.092915024300        -0.183657017046
    7          0.035016314400        -0.339747877748
    8          5.004444549700         0.003480277039
    9          1.773682332400        -0.033789215797
   10          0.769505917000        -0.070502157358
   11          5.004444549700        -0.014306467292
   12          1.773682332400         0.138898227120
   13          0.769505917000         0.289815091418
   14          5.004444549700         0.000639346538
   15          1.773682332400        -0.006207269678
   16          0.769505917000        -0.012951644282
   17          5.004444549700        -0.014260736946
   18          1.773682332400         0.138454241629
   19          0.769505917000         0.288888703095
 P 19
    1          8.893111791500        -0.011109754668
    2          5.468911227000         0.037374816344
    3          1.354847300700        -0.073513457406
    4          0.654948674600        -0.077489040780
    5          8.893111791500         0.005751496023
    6          5.468911227000        -0.019348861786
    7          1.354847300700         0.038057758296
    8          0.654948674600         0.040115909232
    9          8.893111791500         0.000226617081
   10          5.468911227000        -0.000762372530
   11          1.354847300700         0.001499529522
   12          0.654948674600         0.001580623581
   13          0.304281974700         0.004729235311
   14          0.304281974700        -0.002448314917
   15          0.304281974700        -0.000096467072
   16          0.100000000000         0.030470602076
   17          0.100000000000        -0.015774564955
   18          0.100000000000        -0.000621540177
   19          0.033000000000         0.869443786472
 P 19
    1          8.893111791500        -0.000678712713
    2          5.468911227000         0.002283287413
    3          1.354847300700        -0.004491054897
    4          0.654948674600        -0.004733929655
    5          8.893111791500        -0.000512575509
    6          5.468911227000         0.001724377909
    7          1.354847300700        -0.003391721869
    8          0.654948674600        -0.003575145062
    9          8.893111791500        -0.020264384817
   10          5.468911227000         0.068172311945
   11          1.354847300700        -0.134089818778
   12          0.654948674600        -0.141341351668
   13          0.304281974700        -0.011536034607
   14          0.304281974700        -0.008712211665
   15          0.304281974700        -0.344432394001
   16          0.100000000000         0.056933982238
   17          0.100000000000         0.042997522205
   18          0.100000000000         1.699882886116
   19          0.033000000000        -0.036798213322
 D 19
    1          5.004444549700        -0.000240113306
    2          1.773682332400         0.002331205307
    3          0.769505917000         0.004864126010
    4          5.004444549700        -0.000372926324
    5          1.773682332400         0.003620656600
    6          0.769505917000         0.007554602714
    7          5.004444549700        -0.004127644714
    8          1.773682332400         0.040074360868
    9          0.769505917000         0.083616290857
   10          5.004444549700        -0.000543774740
   11          1.773682332400         0.005279384900
   12          0.769505917000         0.011015586370
   13          5.004444549700        -0.007999964601
   14          1.773682332400         0.077669831234
   15          0.769505917000         0.162060306357
   16          0.315308789400         0.015308560909
   17          0.315308789400         0.023776130709
   18          0.315308789400         0.263160345554
   19          0.315308789400         0.034668669058
 P 19
    1          8.893111791500        -0.053759113682
    2          5.468911227000         0.180853408629
    3          1.354847300700        -0.355725075131
    4          0.654948674600        -0.374962569116
    5          8.893111791500        -0.104017257164
    6          5.468911227000         0.349929048784
    7          1.354847300700        -0.688284164025
    8          0.654948674600        -0.725506343149
    9          8.893111791500         0.004431602206
   10          5.468911227000        -0.014908548704
   11          1.354847300700         0.029323995870
   12          0.654948674600         0.030909827833
   13          0.304281974700         1.081302637124
   14          0.304281974700         2.092187292046
   15          0.304281974700        -0.089136572825
   16          0.100000000000        -0.684558000889
   17          0.100000000000        -1.324535334474
   18          0.100000000000         0.056431152579
   19          0.033000000000         0.225047760206
 D 19
    1          5.004444549700        -0.001158573632
    2          1.773682332400         0.011248327077
    3          0.769505917000         0.023469953560
    4          5.004444549700        -0.001799411340
    5          1.773682332400         0.017470074188
    6          0.769505917000         0.036451805418
    7          5.004444549700        -0.019916348702
    8          1.773682332400         0.193363285920
    9          0.769505917000         0.403457981774
   10          5.004444549700        -0.002623774112
   11          1.773682332400         0.025473624276
   12          0.769505917000         0.053151439737
   13          5.004444549700        -0.038600726475
   14          1.773682332400         0.374765647141
   15          0.769505917000         0.781959154832
   16          0.315308789400        -0.043545562781
   17          0.315308789400        -0.067631764898
   18          0.315308789400        -0.748565813306
   19          0.315308789400        -0.098615847282
 end
  // -----------------------------------------------
  // The basis set
  // -----------------------------------------------
  BAS[ATNO] = new BFNGauss[NSH];
  // Basis function   1 L = s
  InitBFNGauss(BAS[ATNO][  0]);
  BAS[ATNO][  0].l  = 0;
  BAS[ATNO][  0].ng = 7;
  BAS[ATNO][  0].a[  0] =        14.000000000000;     BAS[ATNO][  0].d[  0] =        -0.287430790565;
  BAS[ATNO][  0].a[  1] =        12.500000000000;     BAS[ATNO][  0].d[  1] =         0.423684801660;
  BAS[ATNO][  0].a[  2] =         4.092150180300;     BAS[ATNO][  0].d[  2] =        -0.621648828845;
  BAS[ATNO][  0].a[  3] =         0.970536025900;     BAS[ATNO][  0].d[  3] =         0.839714582886;
  BAS[ATNO][  0].a[  4] =         0.442176201700;     BAS[ATNO][  0].d[  4] =         0.451289343746;
  BAS[ATNO][  0].a[  5] =         0.092915024300;     BAS[ATNO][  0].d[  5] =         0.013552346651;
  BAS[ATNO][  0].a[  6] =         0.035016314400;     BAS[ATNO][  0].d[  6] =        -0.003198660985;

FINAL SINGLE POINT ENERGY       -67.358247320153

DIPOLE MOMENT
-------------
                                X             Y             Z
Electronic contribution:      0.00000      -0.00000       0.00000
Nuclear contribution   :      0.00000       0.00000       0.00000
                        -----------------------------------------
Total Dipole Moment    :      0.00000      -0.00000       0.00000
                        -----------------------------------------
Magnitude (a.u.)       :      0.00000
Magnitude (Debye)      :      0.00000

Rotational constants in cm-1:     0.000000     0.000000     0.000000
Rotational constants in MHz :     0.000000     0.000000     0.000000

                             ****ORCA TERMINATED NORMALLY****
TOTAL RUN TIME: 0 days 0 hours 0 minutes 2 seconds 69 msec
