                         Program Version 4.2.0 -  RELEASE  -
|  1> #
|  2> # TMB28_T1 wB97X-V/Def2-TZVPPD
|  3> #
|  4> ! wb97x-v def2-tzvppd def2/jk grid4 nofinalgrid
|  5>
|  6> *xyz 0 1
|  7> C       -0.472087   -1.270184   -0.544262
|  8> C       -1.371263   -0.408913   -0.410763
|  9> C       -0.283188   -2.679486   -0.928311
| 10> H       -1.250337   -3.132270   -1.147533
| 11> H        0.355340   -2.736203   -1.811412
| 12> H        0.207850   -3.220295   -0.118359
| 13> C       -2.087605    0.860649   -0.268000
| 14> O       -3.384272    0.602181    0.322954
| 15> C       -3.916162   -0.562532   -0.037107
| 16> O       -3.286397   -1.359772   -0.698080
| 17> C       -1.360806    1.791956    0.779385
| 18> O       -0.796250    2.763376    0.375084
| 19> C       -1.472551    1.401357    2.216606
| 20> H       -1.203914    0.352090    2.355444
| 21> H       -0.810137    2.031512    2.804683
| 22> H       -2.503869    1.535124    2.549793
| 23> C       -5.307153   -0.755812    0.455050
| 24> H       -5.663745   -1.741165    0.170882
| 25> H       -5.328847   -0.642840    1.539841
| 26> H       -5.952574    0.015643    0.032531
| 27> C       -2.259938    1.568911   -1.595082
| 28> H       -2.813189    2.495499   -1.446777
| 29> H       -1.275651    1.804221   -1.997337
| 30> H       -2.786554    0.924255   -2.298279
| 31> Au       1.278819   -0.204328   -0.045979
| 32> Cl       1.126476   -1.118462    2.051374
| 33> Cl       3.319842    0.694072    0.431966
| 34> Cl       1.372434    0.585236   -2.189571
| 35> *
| 36>
| 37> %maxcore 5000
| 38>
| 39> %pal
| 40> nprocs = 24
| 41> end
| 42>
| 43>
| 44>                          ****END OF INPUT****

CARTESIAN COORDINATES (ANGSTROEM)
---------------------------------
  C     -0.472087   -1.270184   -0.544262
  C     -1.371263   -0.408913   -0.410763
  C     -0.283188   -2.679486   -0.928311
  H     -1.250337   -3.132270   -1.147533
  H      0.355340   -2.736203   -1.811412
  H      0.207850   -3.220295   -0.118359
  C     -2.087605    0.860649   -0.268000
  O     -3.384272    0.602181    0.322954
  C     -3.916162   -0.562532   -0.037107
  O     -3.286397   -1.359772   -0.698080
  C     -1.360806    1.791956    0.779385
  O     -0.796250    2.763376    0.375084
  C     -1.472551    1.401357    2.216606
  H     -1.203914    0.352090    2.355444
  H     -0.810137    2.031512    2.804683
  H     -2.503869    1.535124    2.549793
  C     -5.307153   -0.755812    0.455050
  H     -5.663745   -1.741165    0.170882
  H     -5.328847   -0.642840    1.539841
  H     -5.952574    0.015643    0.032531
  C     -2.259938    1.568911   -1.595082
  H     -2.813189    2.495499   -1.446777
  H     -1.275651    1.804221   -1.997337
  H     -2.786554    0.924255   -2.298279
  Au     1.278819   -0.204328   -0.045979
  Cl     1.126476   -1.118462    2.051374
  Cl     3.319842    0.694072    0.431966
  Cl     1.372434    0.585236   -2.189571

 Total Charge           Charge          ....    0
 Multiplicity           Mult            ....    1
 Number of Electrons    NEL             ....  160
 Basis Dimension        Dim             ....  869

ORBITAL ENERGIES
----------------

  NO   OCC          E(Eh)            E(eV)
   0   2.0000    -101.489873     -2761.6798
   1   2.0000    -101.487825     -2761.6241
   2   2.0000    -101.475835     -2761.2978
   3   2.0000     -19.329179      -525.9737
   4   2.0000     -19.278655      -524.5989
   5   2.0000     -19.249936      -523.8174
   6   2.0000     -10.471192      -284.9356
   7   2.0000     -10.422038      -283.5981
   8   2.0000     -10.410384      -283.2810
   9   2.0000     -10.387211      -282.6504
  10   2.0000     -10.353135      -281.7231
  11   2.0000     -10.331810      -281.1428
  12   2.0000     -10.315148      -280.6894
  13   2.0000     -10.299964      -280.2763
  14   2.0000     -10.297711      -280.2150
  15   2.0000      -9.529172      -259.3019
  16   2.0000      -9.527012      -259.2432
  17   2.0000      -9.514897      -258.9135
  18   2.0000      -7.283004      -198.1806
  19   2.0000      -7.281027      -198.1268
  20   2.0000      -7.275894      -197.9871
  21   2.0000      -7.275407      -197.9739
  22   2.0000      -7.273679      -197.9269
  23   2.0000      -7.273130      -197.9119
  24   2.0000      -7.269278      -197.8071
  25   2.0000      -7.261450      -197.5941
  26   2.0000      -7.260738      -197.5747
  27   2.0000      -4.387395      -119.3871
  28   2.0000      -2.570917       -69.9582
  29   2.0000      -2.569662       -69.9241
  30   2.0000      -2.545903       -69.2775
  31   2.0000      -1.324206       -36.0335
  32   2.0000      -1.232117       -33.5276
  33   2.0000      -1.219402       -33.1816
  34   2.0000      -1.026020       -27.9194
  35   2.0000      -0.972911       -26.4742
  36   2.0000      -0.933621       -25.4051
  37   2.0000      -0.923303       -25.1244
  38   2.0000      -0.915218       -24.9043
  39   2.0000      -0.903815       -24.5940
  40   2.0000      -0.896707       -24.4006
  41   2.0000      -0.879481       -23.9319
  42   2.0000      -0.831385       -22.6231
  43   2.0000      -0.777239       -21.1497
  44   2.0000      -0.738425       -20.0936
  45   2.0000      -0.685847       -18.6628
  46   2.0000      -0.666067       -18.1246
  47   2.0000      -0.655643       -17.8409
  48   2.0000      -0.635010       -17.2795
  49   2.0000      -0.623860       -16.9761
  50   2.0000      -0.613424       -16.6921
  51   2.0000      -0.599146       -16.3036
  52   2.0000      -0.592081       -16.1113
  53   2.0000      -0.587470       -15.9859
  54   2.0000      -0.578629       -15.7453
  55   2.0000      -0.568382       -15.4665
  56   2.0000      -0.566387       -15.4122
  57   2.0000      -0.561612       -15.2822
  58   2.0000      -0.554986       -15.1019
  59   2.0000      -0.551602       -15.0098
  60   2.0000      -0.545543       -14.8450
  61   2.0000      -0.535470       -14.5709
  62   2.0000      -0.533467       -14.5164
  63   2.0000      -0.526954       -14.3392
  64   2.0000      -0.517848       -14.0914
  65   2.0000      -0.511944       -13.9307
  66   2.0000      -0.504088       -13.7169
  67   2.0000      -0.486492       -13.2381
  68   2.0000      -0.481545       -13.1035
  69   2.0000      -0.455409       -12.3923
  70   2.0000      -0.444086       -12.0842
  71   2.0000      -0.431322       -11.7369
  72   2.0000      -0.418252       -11.3812
  73   2.0000      -0.415895       -11.3171
  74   2.0000      -0.396351       -10.7853
  75   2.0000      -0.384153       -10.4533
  76   2.0000      -0.381810       -10.3896
  77   2.0000      -0.378368       -10.2959
  78   2.0000      -0.375696       -10.2232
  79   2.0000      -0.367657       -10.0045
  80   0.0000      -0.074751        -2.0341
  81   0.0000       0.003864         0.1051
  82   0.0000       0.028795         0.7836
  83   0.0000       0.031713         0.8630
  84   0.0000       0.046024         1.2524

MULLIKEN ATOMIC CHARGES
-----------------------
   0 C :   -0.584784
   1 C :    0.546556
   2 C :   -0.678547
   3 H :    0.040382
   4 H :    0.124585
   5 H :    0.124834
   6 C :    3.118316
   7 O :   -0.334537
   8 C :    0.563250
   9 O :   -0.465360
  10 C :   -0.151509
  11 O :   -0.408489
  12 C :   -0.239758
  13 H :    0.092314
  14 H :    0.032655
  15 H :    0.085811
  16 C :   -0.420028
  17 H :    0.096570
  18 H :    0.090840
  19 H :    0.098391
  20 C :   -0.720622
  21 H :    0.076696
  22 H :    0.068761
  23 H :    0.093548
  24 Au:    0.130712
  25 Cl:   -0.497350
  26 Cl:   -0.406936
  27 Cl:   -0.476300
Sum of atomic charges:   -0.0000000

LOEWDIN ATOMIC CHARGES
----------------------
   0 C :   -0.310424
   1 C :    0.050547
   2 C :    0.139158
   3 H :   -0.002441
   4 H :   -0.000590
   5 H :   -0.013034
   6 C :   -0.336253
   7 O :    0.088087
   8 C :   -0.429953
   9 O :    0.146228
  10 C :   -0.323031
  11 O :    0.146844
  12 C :    0.210403
  13 H :   -0.045801
  14 H :    0.012034
  15 H :    0.006321
  16 C :    0.260526
  17 H :    0.008903
  18 H :    0.013678
  19 H :    0.014383
  20 C :    0.223444
  21 H :    0.018110
  22 H :   -0.021094
  23 H :    0.014334
  24 Au:    0.276342
  25 Cl:   -0.012749
  26 Cl:   -0.118785
  27 Cl:   -0.015186

  Mayer bond orders larger than 0.100000
B(  0-C ,  1-C ) :  -0.3587 B(  0-C ,  2-C ) :   1.1160 B(  0-C ,  6-C ) :  -0.7063
B(  0-C ,  9-O ) :   0.1206 B(  0-C , 24-Au) :   1.4928 B(  0-C , 25-Cl) :   0.4699
B(  0-C , 27-Cl) :   0.6435 B(  1-C ,  2-C ) :  -0.4667 B(  1-C ,  3-H ) :  -0.1172
B(  1-C ,  6-C ) :  -0.4788 B(  1-C ,  9-O ) :  -0.1028 B(  1-C , 10-C ) :   0.8790
B(  1-C , 12-C ) :   0.2192 B(  1-C , 20-C ) :   0.4692 B(  1-C , 24-Au) :  -0.9837
B(  1-C , 25-Cl) :  -0.6948 B(  1-C , 27-Cl) :  -0.8855 B(  2-C ,  3-H ) :   1.0376
B(  2-C ,  4-H ) :   0.9858 B(  2-C ,  5-H ) :   0.9901 B(  2-C ,  6-C ) :   0.1474
B(  6-C ,  7-O ) :   0.4838 B(  6-C , 10-C ) :  -0.5233 B(  6-C , 12-C ) :  -0.1666
B(  6-C , 20-C ) :   0.4863 B(  6-C , 24-Au) :  -0.3241 B(  7-O ,  8-C ) :   1.1153
B(  7-O ,  9-O ) :   0.1002 B(  7-O , 10-C ) :   0.1209 B(  7-O , 20-C ) :   0.1299
B(  8-C ,  9-O ) :   1.7888 B(  8-C , 16-C ) :   1.0218 B( 10-C , 11-O ) :   1.8674
B( 10-C , 12-C ) :   1.3120 B( 12-C , 13-H ) :   0.9138 B( 12-C , 14-H ) :   1.0197
B( 12-C , 15-H ) :   0.9350 B( 16-C , 17-H ) :   1.0131 B( 16-C , 18-H ) :   0.9691
B( 16-C , 19-H ) :   0.9638 B( 20-C , 21-H ) :   0.9895 B( 20-C , 22-H ) :   0.9693
B( 20-C , 23-H ) :   0.9890 B( 24-Au, 25-Cl) :   0.9864 B( 24-Au, 26-Cl) :   0.7771
B( 24-Au, 27-Cl) :   0.9706 B( 25-Cl, 27-Cl) :   0.1173

FINAL SINGLE POINT ENERGY     -2092.065263168828

DIPOLE MOMENT
-------------
                                X             Y             Z
Electronic contribution:    196.10218     -27.67073      -6.40228
Nuclear contribution   :   -200.70985      26.65253       6.49371
                        -----------------------------------------
Total Dipole Moment    :     -4.60767      -1.01820       0.09143
                        -----------------------------------------
Magnitude (a.u.)       :      4.71972
Magnitude (Debye)      :     11.99656

Rotational constants in cm-1:     0.016870     0.006757     0.006678
Rotational constants in MHz :   505.750873   202.581775   200.209050

                             ****ORCA TERMINATED NORMALLY****
TOTAL RUN TIME: 0 days 0 hours 14 minutes 34 seconds 413 msec
