                         Program Version 4.2.0 -  RELEASE  -
|  1> #
|  2> # TMB26_C1 wB97X-V/Def2-TZVPPD
|  3> #
|  4> ! wb97x-v def2-tzvppd def2/jk grid4 nofinalgrid
|  5>
|  6> *xyz 0 1
|  7> C        2.167128    1.329895    0.039526
|  8> C        2.525644    0.739273   -1.166486
|  9> C        3.439975   -0.306708   -1.174383
| 10> C        3.999633   -0.766755    0.014468
| 11> C        3.640245   -0.158436    1.215781
| 12> C        2.734668    0.894978    1.231934
| 13> H        2.127840    1.087811   -2.109674
| 14> H        4.700013   -1.586902    0.006791
| 15> H        2.446371    1.320973    2.183519
| 16> C        1.181573    2.421289    0.068499
| 17> C        1.441057    3.589123    0.775147
| 18> C       -0.063177    2.327678   -0.606474
| 19> C        0.528793    4.632414    0.796916
| 20> H        2.386085    3.685262    1.294444
| 21> C       -0.980026    3.398239   -0.582106
| 22> C       -0.681931    4.545260    0.115481
| 23> H        0.768969    5.533734    1.348653
| 24> H       -1.927777    3.275890   -1.088947
| 25> H       -1.387173    5.365524    0.142831
| 26> C       -0.458921    1.154963   -1.244997
| 27> C       -0.929867    0.115196   -1.736149
| 28> H       -0.939302   -0.474790   -2.633558
| 29> Au      -1.934281   -0.752855   -0.093938
| 30> Cl      -0.307197   -2.360512   -0.181170
| 31> Cl      -3.051038   -1.907317    1.520981
| 32> Cl      -3.535590    0.885204   -0.082121
| 33> O        3.733505   -0.820421   -2.387318
| 34> O        4.122752   -0.537296    2.416831
| 35> C        4.611393   -1.919557   -2.452177
| 36> H        4.218896   -2.777901   -1.898414
| 37> H        4.691177   -2.180906   -3.505103
| 38> H        5.605429   -1.663635   -2.071314
| 39> C        4.983111   -1.650773    2.472584
| 40> H        5.218240   -1.797897    3.524384
| 41> H        4.497038   -2.550975    2.084317
| 42> H        5.911564   -1.470782    1.920934
| 43> *
| 44>
| 45> %maxcore 5000
| 46>
| 47> %pal
| 48> nprocs = 24
| 49> end
| 50>
| 51>
| 52>                          ****END OF INPUT****

CARTESIAN COORDINATES (ANGSTROEM)
---------------------------------
  C      2.167128    1.329895    0.039526
  C      2.525644    0.739273   -1.166486
  C      3.439975   -0.306708   -1.174383
  C      3.999633   -0.766755    0.014468
  C      3.640245   -0.158436    1.215781
  C      2.734668    0.894978    1.231934
  H      2.127840    1.087811   -2.109674
  H      4.700013   -1.586902    0.006791
  H      2.446371    1.320973    2.183519
  C      1.181573    2.421289    0.068499
  C      1.441057    3.589123    0.775147
  C     -0.063177    2.327678   -0.606474
  C      0.528793    4.632414    0.796916
  H      2.386085    3.685262    1.294444
  C     -0.980026    3.398239   -0.582106
  C     -0.681931    4.545260    0.115481
  H      0.768969    5.533734    1.348653
  H     -1.927777    3.275890   -1.088947
  H     -1.387173    5.365524    0.142831
  C     -0.458921    1.154963   -1.244997
  C     -0.929867    0.115196   -1.736149
  H     -0.939302   -0.474790   -2.633558
  Au    -1.934281   -0.752855   -0.093938
  Cl    -0.307197   -2.360512   -0.181170
  Cl    -3.051038   -1.907317    1.520981
  Cl    -3.535590    0.885204   -0.082121
  O      3.733505   -0.820421   -2.387318
  O      4.122752   -0.537296    2.416831
  C      4.611393   -1.919557   -2.452177
  H      4.218896   -2.777901   -1.898414
  H      4.691177   -2.180906   -3.505103
  H      5.605429   -1.663635   -2.071314
  C      4.983111   -1.650773    2.472584
  H      5.218240   -1.797897    3.524384
  H      4.497038   -2.550975    2.084317
  H      5.911564   -1.470782    1.920934

 Total Charge           Charge          ....    0
 Multiplicity           Mult            ....    1
 Number of Electrons    NEL             ....  196
 Basis Dimension        Dim             .... 1122

ORBITAL ENERGIES
----------------

  NO   OCC          E(Eh)            E(eV)
   0   2.0000    -101.482096     -2761.4682
   1   2.0000    -101.480734     -2761.4312
   2   2.0000    -101.474565     -2761.2633
   3   2.0000     -19.262247      -524.1524
   4   2.0000     -19.261040      -524.1196
   5   2.0000     -10.373568      -282.2791
   6   2.0000     -10.355332      -281.7829
   7   2.0000     -10.355145      -281.7778
   8   2.0000     -10.343939      -281.4729
   9   2.0000     -10.343218      -281.4533
  10   2.0000     -10.337388      -281.2946
  11   2.0000     -10.336553      -281.2719
  12   2.0000     -10.336255      -281.2638
  13   2.0000     -10.329793      -281.0879
  14   2.0000     -10.329758      -281.0870
  15   2.0000     -10.314632      -280.6754
  16   2.0000     -10.314249      -280.6650
  17   2.0000     -10.312340      -280.6130
  18   2.0000     -10.287029      -279.9243
  19   2.0000     -10.282349      -279.7969
  20   2.0000     -10.280891      -279.7573
  21   2.0000      -9.521347      -259.0890
  22   2.0000      -9.519877      -259.0490
  23   2.0000      -9.513578      -258.8776
  24   2.0000      -7.275233      -197.9691
  25   2.0000      -7.273902      -197.9329
  26   2.0000      -7.268108      -197.7753
  27   2.0000      -7.268049      -197.7737
  28   2.0000      -7.267548      -197.7600
  29   2.0000      -7.266519      -197.7320
  30   2.0000      -7.266008      -197.7181
  31   2.0000      -7.260059      -197.5562
  32   2.0000      -7.259337      -197.5366
  33   2.0000      -4.380380      -119.1962
  34   2.0000      -2.564312       -69.7785
  35   2.0000      -2.562884       -69.7396
  36   2.0000      -2.538327       -69.0714
  37   2.0000      -1.224458       -33.3192
  38   2.0000      -1.222062       -33.2540
  39   2.0000      -1.061760       -28.8920
  40   2.0000      -1.014306       -27.6007
  41   2.0000      -0.986168       -26.8350
  42   2.0000      -0.950714       -25.8702
  43   2.0000      -0.926526       -25.2121
  44   2.0000      -0.916398       -24.9365
  45   2.0000      -0.913311       -24.8525
  46   2.0000      -0.896549       -24.3963
  47   2.0000      -0.893792       -24.3213
  48   2.0000      -0.889473       -24.2038
  49   2.0000      -0.865405       -23.5489
  50   2.0000      -0.829532       -22.5727
  51   2.0000      -0.808426       -21.9984
  52   2.0000      -0.786049       -21.3895
  53   2.0000      -0.742632       -20.2080
  54   2.0000      -0.735560       -20.0156
  55   2.0000      -0.706666       -19.2293
  56   2.0000      -0.683770       -18.6063
  57   2.0000      -0.664655       -18.0862
  58   2.0000      -0.647456       -17.6182
  59   2.0000      -0.631841       -17.1933
  60   2.0000      -0.626430       -17.0460
  61   2.0000      -0.619834       -16.8665
  62   2.0000      -0.611665       -16.6442
  63   2.0000      -0.607467       -16.5300
  64   2.0000      -0.600925       -16.3520
  65   2.0000      -0.591122       -16.0853
  66   2.0000      -0.584911       -15.9162
  67   2.0000      -0.579060       -15.7570
  68   2.0000      -0.563914       -15.3449
  69   2.0000      -0.559715       -15.2306
  70   2.0000      -0.558223       -15.1900
  71   2.0000      -0.548323       -14.9206
  72   2.0000      -0.531833       -14.4719
  73   2.0000      -0.527814       -14.3625
  74   2.0000      -0.521172       -14.1818
  75   2.0000      -0.517560       -14.0835
  76   2.0000      -0.515556       -14.0290
  77   2.0000      -0.509536       -13.8652
  78   2.0000      -0.497722       -13.5437
  79   2.0000      -0.490523       -13.3478
  80   2.0000      -0.475274       -12.9329
  81   2.0000      -0.473671       -12.8892
  82   2.0000      -0.462601       -12.5880
  83   2.0000      -0.453607       -12.3433
  84   2.0000      -0.445138       -12.1128
  85   2.0000      -0.443765       -12.0755
  86   2.0000      -0.434513       -11.8237
  87   2.0000      -0.415581       -11.3085
  88   2.0000      -0.407877       -11.0989
  89   2.0000      -0.402761       -10.9597
  90   2.0000      -0.391848       -10.6627
  91   2.0000      -0.378593       -10.3020
  92   2.0000      -0.376386       -10.2420
  93   2.0000      -0.372699       -10.1417
  94   2.0000      -0.369984       -10.0678
  95   2.0000      -0.362755        -9.8711
  96   2.0000      -0.345357        -9.3977
  97   2.0000      -0.319653        -8.6982
  98   0.0000      -0.085249        -2.3197
  99   0.0000      -0.014582        -0.3968
 100   0.0000       0.017876         0.4864
 101   0.0000       0.039958         1.0873
 102   0.0000       0.045438         1.2364

MULLIKEN ATOMIC CHARGES
-----------------------
   0 C :    1.342160
   1 C :   -0.559325
   2 C :    0.366969
   3 C :    0.091960
   4 C :    0.371427
   5 C :   -0.539557
   6 H :   -0.055405
   7 H :   -0.178074
   8 H :   -0.069076
   9 C :    0.365755
  10 C :    0.071838
  11 C :    0.277166
  12 C :   -0.110897
  13 H :   -0.024174
  14 C :   -0.275457
  15 C :   -0.036648
  16 H :   -0.009080
  17 H :   -0.017227
  18 H :   -0.011439
  19 C :    0.713625
  20 C :   -0.411547
  21 H :    0.043811
  22 Au:    0.395570
  23 Cl:   -0.433811
  24 Cl:   -0.338471
  25 Cl:   -0.463785
  26 O :   -0.340441
  27 O :   -0.334704
  28 C :   -0.183272
  29 H :    0.111396
  30 H :    0.033699
  31 H :    0.118351
  32 C :   -0.178459
  33 H :    0.033212
  34 H :    0.123566
  35 H :    0.110344
Sum of atomic charges:    0.0000000

LOEWDIN ATOMIC CHARGES
----------------------
   0 C :   -0.139957
   1 C :    0.106277
   2 C :   -0.225719
   3 C :    0.126650
   4 C :   -0.224842
   5 C :    0.115367
   6 H :    0.026712
   7 H :   -0.014507
   8 H :    0.027556
   9 C :   -0.074088
  10 C :    0.076398
  11 C :   -0.156439
  12 C :    0.064057
  13 H :    0.021622
  14 C :    0.073155
  15 C :    0.044636
  16 H :    0.015074
  17 H :    0.004249
  18 H :    0.011195
  19 C :   -0.036212
  20 C :   -0.067890
  21 H :   -0.037418
  22 Au:    0.226824
  23 Cl:   -0.072419
  24 Cl:   -0.125081
  25 Cl:   -0.054132
  26 O :   -0.014184
  27 O :   -0.012048
  28 C :    0.118523
  29 H :    0.015163
  30 H :    0.011970
  31 H :    0.011938
  32 C :    0.118652
  33 H :    0.012261
  34 H :    0.015224
  35 H :    0.011434

  Mayer bond orders larger than 0.100000
B(  0-C ,  1-C ) :   0.3590 B(  0-C ,  3-C ) :  -0.2438 B(  0-C ,  5-C ) :   0.5517
B(  0-C ,  6-H ) :  -0.3939 B(  0-C ,  8-H ) :  -0.2847 B(  0-C ,  9-C ) :  -0.7957
B(  0-C , 10-C ) :  -0.2053 B(  0-C , 11-C ) :  -0.3032 B(  0-C , 12-C ) :  -0.2282
B(  0-C , 14-C ) :  -0.2873 B(  0-C , 15-C ) :   0.1088 B(  0-C , 19-C ) :   0.2866
B(  0-C , 20-C ) :   0.1037 B(  1-C ,  2-C ) :   1.3626 B(  1-C ,  5-C ) :   0.2352
B(  1-C ,  6-H ) :   1.1678 B(  1-C , 10-C ) :   0.4091 B(  1-C , 12-C ) :  -0.1291
B(  1-C , 14-C ) :  -0.1735 B(  1-C , 19-C ) :   0.1351 B(  2-C ,  3-C ) :   1.2224
B(  2-C ,  4-C ) :   0.1528 B(  2-C ,  6-H ) :   0.1318 B(  2-C ,  7-H ) :  -0.1116
B(  2-C ,  9-C ) :  -0.2263 B(  2-C , 10-C ) :  -0.2496 B(  2-C , 12-C ) :   0.1042
B(  2-C , 14-C ) :   0.1569 B(  2-C , 26-O ) :   0.8386 B(  3-C ,  4-C ) :   1.2260
B(  3-C ,  7-H ) :   1.0775 B(  3-C ,  9-C ) :   0.2584 B(  3-C , 10-C ) :   0.1257
B(  4-C ,  5-C ) :   1.3013 B(  4-C ,  7-H ) :  -0.1224 B(  4-C ,  9-C ) :  -0.1700
B(  4-C , 10-C ) :  -0.1367 B(  4-C , 14-C ) :   0.1220 B(  4-C , 27-O ) :   0.8814
B(  5-C ,  8-H ) :   1.1718 B(  5-C ,  9-C ) :  -0.1020 B(  5-C , 10-C ) :   0.3174
B(  5-C , 11-C ) :  -0.1246 B(  5-C , 14-C ) :  -0.1209 B(  9-C , 10-C ) :   0.5725
B(  9-C , 11-C ) :   0.5504 B(  9-C , 12-C ) :   0.1212 B(  9-C , 13-H ) :  -0.1401
B(  9-C , 14-C ) :   0.2546 B(  9-C , 19-C ) :  -0.5784 B(  9-C , 20-C ) :   0.2289
B( 10-C , 12-C ) :   1.2757 B( 10-C , 13-H ) :   1.0850 B( 11-C , 14-C ) :   1.3080
B( 11-C , 15-C ) :  -0.2020 B( 11-C , 19-C ) :   0.4146 B( 11-C , 20-C ) :  -0.7754
B( 12-C , 14-C ) :   0.1118 B( 12-C , 15-C ) :   1.1940 B( 12-C , 16-H ) :   1.1096
B( 12-C , 18-H ) :  -0.1038 B( 14-C , 15-C ) :   1.2403 B( 14-C , 17-H ) :   1.0819
B( 14-C , 19-C ) :  -0.2928 B( 14-C , 20-C ) :   0.1340 B( 15-C , 16-H ) :  -0.1026
B( 15-C , 17-H ) :  -0.1247 B( 15-C , 18-H ) :   1.1212 B( 19-C , 20-C ) :   1.4791
B( 19-C , 22-Au) :  -0.2817 B( 19-C , 23-Cl) :  -0.4190 B( 19-C , 25-Cl) :  -0.1117
B( 20-C , 21-H ) :   0.9207 B( 20-C , 22-Au) :   0.9664 B( 20-C , 23-Cl) :   0.3252
B( 22-Au, 23-Cl) :   0.8207 B( 22-Au, 24-Cl) :   0.7991 B( 22-Au, 25-Cl) :   0.8664
B( 23-Cl, 25-Cl) :   0.1179 B( 26-O , 28-C ) :   0.9111 B( 27-O , 32-C ) :   0.8987
B( 28-C , 29-H ) :   0.9817 B( 28-C , 30-H ) :   1.0917 B( 28-C , 31-H ) :   0.9750
B( 32-C , 33-H ) :   1.0923 B( 32-C , 34-H ) :   0.9829 B( 32-C , 35-H ) :   0.9745

FINAL SINGLE POINT ENERGY     -2284.765894587807

DIPOLE MOMENT
-------------
                                X             Y             Z
Electronic contribution:   -300.21475    -110.51915     -12.44482
Nuclear contribution   :    303.49748     112.54151      11.37787
                        -----------------------------------------
Total Dipole Moment    :      3.28272       2.02237      -1.06695
                        -----------------------------------------
Magnitude (a.u.)       :      4.00058
Magnitude (Debye)      :     10.16866

Rotational constants in cm-1:     0.007370     0.004054     0.003244
Rotational constants in MHz :   220.947502   121.548879    97.259691

                             ****ORCA TERMINATED NORMALLY****
TOTAL RUN TIME: 0 days 0 hours 30 minutes 37 seconds 542 msec
