                         Program Version 4.2.0 -  RELEASE  -
|  1> #
|  2> # TMB20_T3 wB97X-V/Def2-TZVPPD
|  3> #
|  4> ! wb97x-v def2-tzvppd def2/jk grid4 nofinalgrid
|  5>
|  6> *xyz 0 1
|  7> Re      -0.699337    0.269974   -0.016922
|  8> C       -1.517494    1.171658    1.511937
|  9> C       -2.128741    0.734814   -1.269556
| 10> C        0.006415    1.979914   -0.520985
| 11> Br      -2.293994   -1.692635    0.422377
| 12> O        0.401983    3.017146   -0.812479
| 13> O       -1.978437    1.683611    2.420736
| 14> O       -2.925520    0.985618   -2.040062
| 15> C        1.682445   -0.880018   -1.649716
| 16> C        0.364751   -1.082540   -1.469297
| 17> C        2.354559    0.058914   -0.699791
| 18> C        3.755152   -0.401179   -0.311110
| 19> O        4.391770   -1.216840   -0.916463
| 20> O        4.190730    0.250058    0.766853
| 21> C        1.438220    0.283372    0.494253
| 22> O        0.848413   -0.807036    1.012308
| 23> H        0.600901   -1.340620   -0.125835
| 24> C        5.512413   -0.088930    1.195157
| 25> H        5.700542    0.516294    2.077458
| 26> H        5.571154   -1.149548    1.436871
| 27> H        6.234349    0.138790    0.411497
| 28> H       -0.156995   -1.792005   -2.102193
| 29> H        2.493970    1.031893   -1.188973
| 30> H        1.754916    1.016172    1.230092
| 31> H        2.303398   -1.383326   -2.385460
| 32> *
| 33>
| 34> %maxcore 5000
| 35>
| 36> %pal
| 37> nprocs = 24
| 38> end
| 39>
| 40>
| 41>                          ****END OF INPUT****

CARTESIAN COORDINATES (ANGSTROEM)
---------------------------------
  Re    -0.699337    0.269974   -0.016922
  C     -1.517494    1.171658    1.511937
  C     -2.128741    0.734814   -1.269556
  C      0.006415    1.979914   -0.520985
  Br    -2.293994   -1.692635    0.422377
  O      0.401983    3.017146   -0.812479
  O     -1.978437    1.683611    2.420736
  O     -2.925520    0.985618   -2.040062
  C      1.682445   -0.880018   -1.649716
  C      0.364751   -1.082540   -1.469297
  C      2.354559    0.058914   -0.699791
  C      3.755152   -0.401179   -0.311110
  O      4.391770   -1.216840   -0.916463
  O      4.190730    0.250058    0.766853
  C      1.438220    0.283372    0.494253
  O      0.848413   -0.807036    1.012308
  H      0.600901   -1.340620   -0.125835
  C      5.512413   -0.088930    1.195157
  H      5.700542    0.516294    2.077458
  H      5.571154   -1.149548    1.436871
  H      6.234349    0.138790    0.411497
  H     -0.156995   -1.792005   -2.102193
  H      2.493970    1.031893   -1.188973
  H      1.754916    1.016172    1.230092
  H      2.303398   -1.383326   -2.385460

 Total Charge           Charge          ....    0
 Multiplicity           Mult            ....    1
 Number of Electrons    NEL             ....  160
 Basis Dimension        Dim             ....  825

ORBITAL ENERGIES
----------------

  NO   OCC          E(Eh)            E(eV)
   0   2.0000    -482.609479    -13132.4716
   1   2.0000     -62.483443     -1700.2609
   2   2.0000     -56.288339     -1531.6836
   3   2.0000     -56.286444     -1531.6320
   4   2.0000     -56.286180     -1531.6248
   5   2.0000     -19.324967      -525.8591
   6   2.0000     -19.309985      -525.4514
   7   2.0000     -19.308826      -525.4199
   8   2.0000     -19.295388      -525.0542
   9   2.0000     -19.287193      -524.8312
  10   2.0000     -19.233658      -523.3744
  11   2.0000     -10.436456      -283.9904
  12   2.0000     -10.429552      -283.8025
  13   2.0000     -10.426453      -283.7182
  14   2.0000     -10.412181      -283.3299
  15   2.0000     -10.400154      -283.0026
  16   2.0000     -10.349154      -281.6148
  17   2.0000     -10.340071      -281.3676
  18   2.0000     -10.329319      -281.0751
  19   2.0000     -10.287270      -279.9308
  20   2.0000      -8.751736      -238.1468
  21   2.0000      -6.578580      -179.0123
  22   2.0000      -6.572620      -178.8501
  23   2.0000      -6.571778      -178.8272
  24   2.0000      -3.368769       -91.6689
  25   2.0000      -2.700761       -73.4914
  26   2.0000      -2.699343       -73.4528
  27   2.0000      -2.698631       -73.4335
  28   2.0000      -2.693961       -73.3064
  29   2.0000      -2.693951       -73.3061
  30   2.0000      -1.933457       -52.6120
  31   2.0000      -1.926374       -52.4193
  32   2.0000      -1.915140       -52.1136
  33   2.0000      -1.302877       -35.4531
  34   2.0000      -1.288718       -35.0678
  35   2.0000      -1.286151       -34.9980
  36   2.0000      -1.281256       -34.8648
  37   2.0000      -1.231375       -33.5074
  38   2.0000      -1.187601       -32.3163
  39   2.0000      -1.001597       -27.2548
  40   2.0000      -0.919721       -25.0269
  41   2.0000      -0.871713       -23.7205
  42   2.0000      -0.853148       -23.2153
  43   2.0000      -0.796852       -21.6834
  44   2.0000      -0.745179       -20.2773
  45   2.0000      -0.731798       -19.9132
  46   2.0000      -0.720642       -19.6097
  47   2.0000      -0.713996       -19.4288
  48   2.0000      -0.706839       -19.2341
  49   2.0000      -0.682605       -18.5746
  50   2.0000      -0.666632       -18.1400
  51   2.0000      -0.641969       -17.4689
  52   2.0000      -0.632823       -17.2200
  53   2.0000      -0.625057       -17.0087
  54   2.0000      -0.621430       -16.9100
  55   2.0000      -0.618614       -16.8333
  56   2.0000      -0.610104       -16.6018
  57   2.0000      -0.608395       -16.5553
  58   2.0000      -0.600909       -16.3516
  59   2.0000      -0.592261       -16.1162
  60   2.0000      -0.591289       -16.0898
  61   2.0000      -0.588610       -16.0169
  62   2.0000      -0.581300       -15.8180
  63   2.0000      -0.579271       -15.7628
  64   2.0000      -0.568447       -15.4682
  65   2.0000      -0.554353       -15.0847
  66   2.0000      -0.537022       -14.6131
  67   2.0000      -0.519411       -14.1339
  68   2.0000      -0.501630       -13.6500
  69   2.0000      -0.497498       -13.5376
  70   2.0000      -0.447268       -12.1708
  71   2.0000      -0.442501       -12.0411
  72   2.0000      -0.423960       -11.5365
  73   2.0000      -0.409571       -11.1450
  74   2.0000      -0.407389       -11.0856
  75   2.0000      -0.398610       -10.8467
  76   2.0000      -0.380639       -10.3577
  77   2.0000      -0.362643        -9.8680
  78   2.0000      -0.349798        -9.5185
  79   2.0000      -0.332489        -9.0475
  80   0.0000      -0.019958        -0.5431
  81   0.0000       0.002494         0.0679
  82   0.0000       0.032798         0.8925
  83   0.0000       0.044490         1.2106
  84   0.0000       0.048280         1.3138

MULLIKEN ATOMIC CHARGES
-----------------------
   0 Re:    0.244192
   1 C :    0.538880
   2 C :    0.454079
   3 C :   -0.068761
   4 Br:   -0.557232
   5 O :   -0.295094
   6 O :   -0.243723
   7 O :   -0.213242
   8 C :   -0.676802
   9 C :    0.280555
  10 C :    1.681512
  11 C :   -0.280873
  12 O :   -0.492908
  13 O :   -0.178306
  14 C :    0.001038
  15 O :   -0.472979
  16 H :    0.174398
  17 C :   -0.105818
  18 H :    0.053043
  19 H :    0.109087
  20 H :    0.107826
  21 H :   -0.088551
  22 H :    0.040771
  23 H :    0.079846
  24 H :   -0.090939
Sum of atomic charges:   -0.0000000

LOEWDIN ATOMIC CHARGES
----------------------
   0 Re:    0.585505
   1 C :   -0.249406
   2 C :   -0.283788
   3 C :   -0.262392
   4 Br:    0.147686
   5 O :    0.152410
   6 O :    0.146930
   7 O :    0.168297
   8 C :    0.053352
   9 C :    0.003404
  10 C :   -0.098286
  11 C :   -0.442832
  12 O :    0.143316
  13 O :    0.024239
  14 C :   -0.193575
  15 O :   -0.027793
  16 H :   -0.164915
  17 C :    0.174113
  18 H :    0.011377
  19 H :    0.015538
  20 H :    0.014182
  21 H :   -0.038759
  22 H :    0.059819
  23 H :    0.037586
  24 H :    0.023992

  Mayer bond orders larger than 0.100000
B(  0-Re,  1-C ) :   1.1953 B(  0-Re,  2-C ) :   1.0467 B(  0-Re,  3-C ) :   1.3357
B(  0-Re,  4-Br) :   0.5029 B(  0-Re,  8-C ) :   0.2039 B(  0-Re,  9-C ) :   0.3923
B(  0-Re, 14-C ) :   0.5203 B(  0-Re, 15-O ) :   0.5204 B(  0-Re, 16-H ) :   0.1297
B(  1-C ,  2-C ) :  -0.1226 B(  1-C ,  6-O ) :   2.2515 B(  2-C ,  7-O ) :   2.2818
B(  3-C ,  5-O ) :   2.1337 B(  3-C ,  8-C ) :  -0.1236 B(  3-C , 10-C ) :   0.1051
B(  3-C , 14-C ) :   0.2205 B(  8-C ,  9-C ) :   1.8088 B(  8-C , 10-C ) :   0.4834
B(  8-C , 11-C ) :   0.2609 B(  8-C , 16-H ) :   0.1869 B(  8-C , 24-H ) :   1.2427
B(  9-C , 16-H ) :   0.4082 B(  9-C , 21-H ) :   1.0661 B( 10-C , 11-C ) :   0.1141
B( 10-C , 14-C ) :   0.9247 B( 10-C , 22-H ) :   0.7752 B( 10-C , 24-H ) :  -0.1416
B( 11-C , 12-O ) :   1.8072 B( 11-C , 13-O ) :   0.9889 B( 11-C , 14-C ) :   0.3236
B( 13-O , 17-C ) :   0.8068 B( 14-C , 15-O ) :   0.8675 B( 14-C , 23-H ) :   0.9906
B( 15-O , 16-H ) :   0.3518 B( 17-C , 18-H ) :   1.0672 B( 17-C , 19-H ) :   0.9819
B( 17-C , 20-H ) :   0.9715

FINAL SINGLE POINT ENERGY     -3451.457194911782

DIPOLE MOMENT
-------------
                                X             Y             Z
Electronic contribution:   -122.87167      29.19568       0.54020
Nuclear contribution   :    124.94821     -28.06424      -0.72382
                        -----------------------------------------
Total Dipole Moment    :      2.07653       1.13144      -0.18362
                        -----------------------------------------
Magnitude (a.u.)       :      2.37189
Magnitude (Debye)      :      6.02886

Rotational constants in cm-1:     0.017375     0.006623     0.006112
Rotational constants in MHz :   520.879987   198.539547   183.234187

                             ****ORCA TERMINATED NORMALLY****
TOTAL RUN TIME: 0 days 0 hours 14 minutes 9 seconds 844 msec
