                         Program Version 4.2.0 -  RELEASE  -
|  1> #
|  2> # TMB20_T2 wB97X-V/Def2-TZVPPD
|  3> #
|  4> ! wb97x-v def2-tzvppd def2/jk grid4 nofinalgrid
|  5>
|  6> *xyz 0 1
|  7> Re       0.995979    0.090170   -0.058185
|  8> C        2.014396   -1.161086   -1.123855
|  9> C        1.992692   -0.479631    1.452527
| 10> C        2.318376    1.423242   -0.367549
| 11> Br      -0.834689   -1.732689    0.254349
| 12> O        3.132368    2.217573   -0.550268
| 13> O        2.612239   -1.888693   -1.769425
| 14> O        2.568963   -0.789175    2.393169
| 15> C       -1.540273    1.685786    1.546594
| 16> C       -0.263771    1.318522    1.475095
| 17> C       -2.014636    1.773094    0.144138
| 18> C       -2.942101    0.711821   -0.394874
| 19> O       -2.841029    0.284728   -1.529710
| 20> O       -3.882762    0.367872    0.447794
| 21> C       -0.602735    1.743713   -0.435058
| 22> O       -0.382838    0.990264   -1.561710
| 23> H       -1.229741    0.476538   -1.736592
| 24> C       -4.752144   -0.688497    0.013665
| 25> H       -5.447661   -0.845693    0.832416
| 26> H       -5.279179   -0.395656   -0.893281
| 27> H       -4.161178   -1.583930   -0.173849
| 28> H        0.422554    1.379477    2.313653
| 29> H       -2.484103    2.733887   -0.106082
| 30> H       -2.090878    1.979492    2.431124
| 31> H       -0.128477    2.714877   -0.508669
| 32> *
| 33>
| 34> %maxcore 5000
| 35>
| 36> %pal
| 37> nprocs = 24
| 38> end
| 39>
| 40>
| 41>                          ****END OF INPUT****

CARTESIAN COORDINATES (ANGSTROEM)
---------------------------------
  Re     0.995979    0.090170   -0.058185
  C      2.014396   -1.161086   -1.123855
  C      1.992692   -0.479631    1.452527
  C      2.318376    1.423242   -0.367549
  Br    -0.834689   -1.732689    0.254349
  O      3.132368    2.217573   -0.550268
  O      2.612239   -1.888693   -1.769425
  O      2.568963   -0.789175    2.393169
  C     -1.540273    1.685786    1.546594
  C     -0.263771    1.318522    1.475095
  C     -2.014636    1.773094    0.144138
  C     -2.942101    0.711821   -0.394874
  O     -2.841029    0.284728   -1.529710
  O     -3.882762    0.367872    0.447794
  C     -0.602735    1.743713   -0.435058
  O     -0.382838    0.990264   -1.561710
  H     -1.229741    0.476538   -1.736592
  C     -4.752144   -0.688497    0.013665
  H     -5.447661   -0.845693    0.832416
  H     -5.279179   -0.395656   -0.893281
  H     -4.161178   -1.583930   -0.173849
  H      0.422554    1.379477    2.313653
  H     -2.484103    2.733887   -0.106082
  H     -2.090878    1.979492    2.431124
  H     -0.128477    2.714877   -0.508669

 Total Charge           Charge          ....    0
 Multiplicity           Mult            ....    1
 Number of Electrons    NEL             ....  160
 Basis Dimension        Dim             ....  825

ORBITAL ENERGIES
----------------

  NO   OCC          E(Eh)            E(eV)
   0   2.0000    -482.591203    -13131.9743
   1   2.0000     -62.465206     -1699.7647
   2   2.0000     -56.269755     -1531.1779
   3   2.0000     -56.268308     -1531.1385
   4   2.0000     -56.268212     -1531.1359
   5   2.0000     -19.314062      -525.5623
   6   2.0000     -19.303366      -525.2713
   7   2.0000     -19.294265      -525.0236
   8   2.0000     -19.287438      -524.8379
   9   2.0000     -19.278507      -524.5948
  10   2.0000     -19.248020      -523.7653
  11   2.0000     -10.451204      -284.3917
  12   2.0000     -10.434730      -283.9434
  13   2.0000     -10.398286      -282.9518
  14   2.0000     -10.393745      -282.8282
  15   2.0000     -10.387190      -282.6498
  16   2.0000     -10.347896      -281.5806
  17   2.0000     -10.346664      -281.5470
  18   2.0000     -10.330947      -281.1194
  19   2.0000     -10.315977      -280.7120
  20   2.0000      -8.733432      -237.6488
  21   2.0000      -6.559220      -178.4855
  22   2.0000      -6.554612      -178.3601
  23   2.0000      -6.554321      -178.3521
  24   2.0000      -3.332943       -90.6940
  25   2.0000      -2.681708       -72.9730
  26   2.0000      -2.680362       -72.9364
  27   2.0000      -2.680130       -72.9300
  28   2.0000      -2.676574       -72.8333
  29   2.0000      -2.676565       -72.8330
  30   2.0000      -1.897995       -51.6471
  31   2.0000      -1.888324       -51.3839
  32   2.0000      -1.887132       -51.3515
  33   2.0000      -1.295116       -35.2419
  34   2.0000      -1.271533       -34.6002
  35   2.0000      -1.264930       -34.4205
  36   2.0000      -1.262551       -34.3558
  37   2.0000      -1.254684       -34.1417
  38   2.0000      -1.197220       -32.5780
  39   2.0000      -1.033461       -28.1219
  40   2.0000      -0.913619       -24.8608
  41   2.0000      -0.868904       -23.6441
  42   2.0000      -0.837971       -22.8023
  43   2.0000      -0.834966       -22.7206
  44   2.0000      -0.743956       -20.2441
  45   2.0000      -0.729799       -19.8588
  46   2.0000      -0.713367       -19.4117
  47   2.0000      -0.694589       -18.9007
  48   2.0000      -0.687905       -18.7188
  49   2.0000      -0.687153       -18.6984
  50   2.0000      -0.681842       -18.5539
  51   2.0000      -0.649249       -17.6670
  52   2.0000      -0.642817       -17.4919
  53   2.0000      -0.634271       -17.2594
  54   2.0000      -0.620458       -16.8835
  55   2.0000      -0.603318       -16.4171
  56   2.0000      -0.591039       -16.0830
  57   2.0000      -0.589486       -16.0407
  58   2.0000      -0.587651       -15.9908
  59   2.0000      -0.579334       -15.7645
  60   2.0000      -0.574938       -15.6449
  61   2.0000      -0.566078       -15.4038
  62   2.0000      -0.563633       -15.3372
  63   2.0000      -0.559685       -15.2298
  64   2.0000      -0.558469       -15.1967
  65   2.0000      -0.548818       -14.9341
  66   2.0000      -0.546624       -14.8744
  67   2.0000      -0.519587       -14.1387
  68   2.0000      -0.506545       -13.7838
  69   2.0000      -0.501677       -13.6513
  70   2.0000      -0.455487       -12.3944
  71   2.0000      -0.451823       -12.2947
  72   2.0000      -0.438301       -11.9268
  73   2.0000      -0.419267       -11.4088
  74   2.0000      -0.390837       -10.6352
  75   2.0000      -0.379001       -10.3131
  76   2.0000      -0.363722        -9.8974
  77   2.0000      -0.341254        -9.2860
  78   2.0000      -0.320777        -8.7288
  79   2.0000      -0.316459        -8.6113
  80   0.0000      -0.008425        -0.2293
  81   0.0000       0.029152         0.7933
  82   0.0000       0.038249         1.0408
  83   0.0000       0.042913         1.1677
  84   0.0000       0.050076         1.3626

MULLIKEN ATOMIC CHARGES
-----------------------
   0 Re:    0.100924
   1 C :    0.529205
   2 C :    0.329183
   3 C :    0.170766
   4 Br:   -0.595082
   5 O :   -0.321768
   6 O :   -0.257094
   7 O :   -0.294318
   8 C :   -0.540805
   9 C :    0.111004
  10 C :    1.453131
  11 C :   -0.019356
  12 O :   -0.518189
  13 O :   -0.167813
  14 C :   -0.209524
  15 O :   -0.404771
  16 H :    0.407662
  17 C :   -0.074728
  18 H :    0.051233
  19 H :    0.108461
  20 H :    0.090308
  21 H :   -0.111538
  22 H :    0.061242
  23 H :   -0.108668
  24 H :    0.210533
Sum of atomic charges:   -0.0000000

LOEWDIN ATOMIC CHARGES
----------------------
   0 Re:    0.531607
   1 C :   -0.267068
   2 C :   -0.311560
   3 C :   -0.260914
   4 Br:    0.156486
   5 O :    0.109371
   6 O :    0.140277
   7 O :    0.135898
   8 C :    0.016634
   9 C :    0.029555
  10 C :   -0.090153
  11 C :   -0.481658
  12 O :    0.120012
  13 O :    0.047293
  14 C :   -0.143527
  15 O :    0.148028
  16 H :   -0.208701
  17 C :    0.190271
  18 H :    0.013880
  19 H :    0.014680
  20 H :    0.005217
  21 H :   -0.031497
  22 H :    0.073373
  23 H :    0.019241
  24 H :    0.043256

  Mayer bond orders larger than 0.100000
B(  0-Re,  1-C ) :   1.1765 B(  0-Re,  2-C ) :   1.4002 B(  0-Re,  3-C ) :   1.4495
B(  0-Re,  4-Br) :   0.3535 B(  0-Re,  5-O ) :   0.1098 B(  0-Re,  6-O ) :   0.1012
B(  0-Re,  9-C ) :   0.3641 B(  0-Re, 14-C ) :   0.3881 B(  0-Re, 15-O ) :   0.3932
B(  1-C ,  2-C ) :  -0.1466 B(  1-C ,  6-O ) :   2.2324 B(  2-C ,  4-Br) :   0.1040
B(  2-C ,  7-O ) :   2.1934 B(  2-C ,  9-C ) :   0.1718 B(  3-C ,  5-O ) :   2.1201
B(  4-Br, 11-C ) :   0.1228 B(  8-C ,  9-C ) :   1.6558 B(  8-C , 10-C ) :   0.6537
B(  8-C , 11-C ) :   0.1082 B(  8-C , 14-C ) :   0.1970 B(  8-C , 23-H ) :   1.1947
B(  9-C , 14-C ) :   0.3310 B(  9-C , 21-H ) :   1.1199 B(  9-C , 23-H ) :  -0.1017
B( 10-C , 14-C ) :   1.0067 B( 10-C , 22-H ) :   0.7384 B( 11-C , 12-O ) :   1.5572
B( 11-C , 13-O ) :   0.9823 B( 11-C , 14-C ) :   0.5152 B( 11-C , 22-H ) :   0.1186
B( 13-O , 17-C ) :   0.8142 B( 14-C , 15-O ) :   0.7797 B( 14-C , 24-H ) :   0.9611
B( 15-O , 16-H ) :   0.8341 B( 17-C , 18-H ) :   1.0645 B( 17-C , 19-H ) :   0.9677
B( 17-C , 20-H ) :   0.9711

FINAL SINGLE POINT ENERGY     -3451.463285331369

DIPOLE MOMENT
-------------
                                X             Y             Z
Electronic contribution:    141.16895      -0.60466      -7.47301
Nuclear contribution   :   -143.25315       2.56406       7.67326
                        -----------------------------------------
Total Dipole Moment    :     -2.08419       1.95940       0.20025
                        -----------------------------------------
Magnitude (a.u.)       :      2.86762
Magnitude (Debye)      :      7.28890

Rotational constants in cm-1:     0.017495     0.008280     0.007326
Rotational constants in MHz :   524.496520   248.224980   219.630549

                             ****ORCA TERMINATED NORMALLY****
TOTAL RUN TIME: 0 days 0 hours 13 minutes 10 seconds 301 msec
