                         Program Version 4.2.0 -  RELEASE  -
|  1> #
|  2> # TMB20_T1 wB97X-V/Def2-TZVPPD
|  3> #
|  4> ! wb97x-v def2-tzvppd def2/jk grid4 nofinalgrid
|  5>
|  6> *xyz 0 1
|  7> Re       1.075850    0.159419    0.019780
|  8> C        2.196750   -0.403878   -1.423482
|  9> C        2.402994   -0.436307    1.215711
| 10> C        1.922458    1.855293   -0.011396
| 11> Br      -0.261613   -2.102343    0.064683
| 12> O        2.449833    2.881230   -0.022028
| 13> O        2.868443   -0.722069   -2.296753
| 14> O        3.210599   -0.792996    1.955405
| 15> C       -1.539667    1.495797    1.625423
| 16> C       -0.428781    0.920088    1.558456
| 17> C       -2.591644    1.677755   -0.408432
| 18> C       -3.343269    0.487162   -0.270226
| 19> O       -2.954237   -0.721219   -0.381568
| 20> O       -4.608112    0.658864    0.009021
| 21> C       -1.326616    1.715594   -1.019432
| 22> O       -0.664105    0.697605   -1.265770
| 23> H       -1.956019   -0.923705   -0.405218
| 24> C       -5.425994   -0.504251    0.214760
| 25> H       -6.403655   -0.115620    0.482117
| 26> H       -5.482311   -1.089893   -0.701194
| 27> H       -5.017526   -1.116193    1.017061
| 28> H        0.138084    0.692302    2.461523
| 29> H       -3.155110    2.594425   -0.305352
| 30> H       -2.375145    2.018826    2.037613
| 31> H       -0.897368    2.710605   -1.208716
| 32> *
| 33>
| 34> %maxcore 5000
| 35>
| 36> %pal
| 37> nprocs = 24
| 38> end
| 39>
| 40>
| 41>                          ****END OF INPUT****

CARTESIAN COORDINATES (ANGSTROEM)
---------------------------------
  Re     1.075850    0.159419    0.019780
  C      2.196750   -0.403878   -1.423482
  C      2.402994   -0.436307    1.215711
  C      1.922458    1.855293   -0.011396
  Br    -0.261613   -2.102343    0.064683
  O      2.449833    2.881230   -0.022028
  O      2.868443   -0.722069   -2.296753
  O      3.210599   -0.792996    1.955405
  C     -1.539667    1.495797    1.625423
  C     -0.428781    0.920088    1.558456
  C     -2.591644    1.677755   -0.408432
  C     -3.343269    0.487162   -0.270226
  O     -2.954237   -0.721219   -0.381568
  O     -4.608112    0.658864    0.009021
  C     -1.326616    1.715594   -1.019432
  O     -0.664105    0.697605   -1.265770
  H     -1.956019   -0.923705   -0.405218
  C     -5.425994   -0.504251    0.214760
  H     -6.403655   -0.115620    0.482117
  H     -5.482311   -1.089893   -0.701194
  H     -5.017526   -1.116193    1.017061
  H      0.138084    0.692302    2.461523
  H     -3.155110    2.594425   -0.305352
  H     -2.375145    2.018826    2.037613
  H     -0.897368    2.710605   -1.208716

 Total Charge           Charge          ....    0
 Multiplicity           Mult            ....    1
 Number of Electrons    NEL             ....  160
 Basis Dimension        Dim             ....  825

ORBITAL ENERGIES
----------------

  NO   OCC          E(Eh)            E(eV)
   0   2.0000    -482.594913    -13132.0752
   1   2.0000     -62.469068     -1699.8698
   2   2.0000     -56.273327     -1531.2751
   3   2.0000     -56.272454     -1531.2513
   4   2.0000     -56.272017     -1531.2394
   5   2.0000     -19.333570      -526.0932
   6   2.0000     -19.315986      -525.6147
   7   2.0000     -19.267384      -524.2922
   8   2.0000     -19.261705      -524.1376
   9   2.0000     -19.258057      -524.0384
  10   2.0000     -19.245478      -523.6961
  11   2.0000     -10.488801      -285.4148
  12   2.0000     -10.403363      -283.0899
  13   2.0000     -10.375417      -282.3295
  14   2.0000     -10.373879      -282.2876
  15   2.0000     -10.371736      -282.2293
  16   2.0000     -10.368479      -282.1406
  17   2.0000     -10.358433      -281.8673
  18   2.0000     -10.322883      -280.8999
  19   2.0000     -10.303885      -280.3830
  20   2.0000      -8.737388      -237.7564
  21   2.0000      -6.562303      -178.5694
  22   2.0000      -6.559551      -178.4945
  23   2.0000      -6.558193      -178.4575
  24   2.0000      -3.312888       -90.1483
  25   2.0000      -2.685015       -73.0630
  26   2.0000      -2.684482       -73.0485
  27   2.0000      -2.683357       -73.0179
  28   2.0000      -2.681204       -72.9593
  29   2.0000      -2.681148       -72.9577
  30   2.0000      -1.874930       -51.0195
  31   2.0000      -1.868680       -50.8494
  32   2.0000      -1.868127       -50.8343
  33   2.0000      -1.334999       -36.3272
  34   2.0000      -1.246891       -33.9296
  35   2.0000      -1.244233       -33.8573
  36   2.0000      -1.237975       -33.6870
  37   2.0000      -1.234717       -33.5984
  38   2.0000      -1.215469       -33.0746
  39   2.0000      -0.985682       -26.8218
  40   2.0000      -0.939052       -25.5529
  41   2.0000      -0.905445       -24.6384
  42   2.0000      -0.846774       -23.0419
  43   2.0000      -0.809580       -22.0298
  44   2.0000      -0.787380       -21.4257
  45   2.0000      -0.732232       -19.9250
  46   2.0000      -0.719399       -19.5758
  47   2.0000      -0.698308       -19.0019
  48   2.0000      -0.676639       -18.4123
  49   2.0000      -0.669281       -18.2121
  50   2.0000      -0.667069       -18.1519
  51   2.0000      -0.658288       -17.9129
  52   2.0000      -0.651966       -17.7409
  53   2.0000      -0.626882       -17.0583
  54   2.0000      -0.606421       -16.5016
  55   2.0000      -0.599041       -16.3007
  56   2.0000      -0.589268       -16.0348
  57   2.0000      -0.579535       -15.7699
  58   2.0000      -0.570472       -15.5233
  59   2.0000      -0.566966       -15.4279
  60   2.0000      -0.565196       -15.3798
  61   2.0000      -0.559534       -15.2257
  62   2.0000      -0.555342       -15.1116
  63   2.0000      -0.545756       -14.8508
  64   2.0000      -0.539006       -14.6671
  65   2.0000      -0.537981       -14.6392
  66   2.0000      -0.535264       -14.5653
  67   2.0000      -0.531483       -14.4624
  68   2.0000      -0.528884       -14.3917
  69   2.0000      -0.498003       -13.5514
  70   2.0000      -0.453909       -12.3515
  71   2.0000      -0.445650       -12.1267
  72   2.0000      -0.429137       -11.6774
  73   2.0000      -0.391329       -10.6486
  74   2.0000      -0.386670       -10.5218
  75   2.0000      -0.370090       -10.0707
  76   2.0000      -0.364759        -9.9256
  77   2.0000      -0.318445        -8.6653
  78   2.0000      -0.312624        -8.5069
  79   2.0000      -0.306119        -8.3299
  80   0.0000      -0.022485        -0.6119
  81   0.0000      -0.008889        -0.2419
  82   0.0000       0.027673         0.7530
  83   0.0000       0.042410         1.1540
  84   0.0000       0.045058         1.2261

MULLIKEN ATOMIC CHARGES
-----------------------
   0 Re:    0.212299
   1 C :    0.575438
   2 C :    0.304772
   3 C :    0.100438
   4 Br:   -0.665023
   5 O :   -0.326384
   6 O :   -0.295479
   7 O :   -0.317094
   8 C :   -0.204302
   9 C :    0.478341
  10 C :   -0.051708
  11 C :    0.686401
  12 O :   -0.276112
  13 O :   -0.207528
  14 C :    0.260557
  15 O :   -0.613367
  16 H :    0.280454
  17 C :   -0.108191
  18 H :    0.052306
  19 H :    0.116822
  20 H :    0.124797
  21 H :   -0.133205
  22 H :    0.060392
  23 H :   -0.008138
  24 H :   -0.046485
Sum of atomic charges:   -0.0000000

LOEWDIN ATOMIC CHARGES
----------------------
   0 Re:    0.509274
   1 C :   -0.281023
   2 C :   -0.338168
   3 C :   -0.281948
   4 Br:    0.222725
   5 O :    0.092269
   6 O :    0.118408
   7 O :    0.098605
   8 C :    0.207539
   9 C :   -0.059250
  10 C :    0.029996
  11 C :   -0.347542
  12 O :    0.318101
  13 O :    0.063236
  14 C :   -0.190969
  15 O :   -0.133903
  16 H :   -0.308969
  17 C :    0.203467
  18 H :    0.016710
  19 H :    0.020363
  20 H :    0.020743
  21 H :   -0.029098
  22 H :    0.025297
  23 H :   -0.029230
  24 H :    0.053369

  Mayer bond orders larger than 0.100000
B(  0-Re,  1-C ) :   1.3114 B(  0-Re,  2-C ) :   1.4444 B(  0-Re,  3-C ) :   1.4579
B(  0-Re,  4-Br) :   0.3612 B(  0-Re,  5-O ) :   0.1043 B(  0-Re,  6-O ) :   0.1249
B(  0-Re,  7-O ) :   0.1126 B(  0-Re,  9-C ) :   0.5014 B(  0-Re, 15-O ) :   0.3191
B(  1-C ,  2-C ) :  -0.1322 B(  1-C ,  6-O ) :   2.1638 B(  1-C ,  8-C ) :   0.1164
B(  1-C ,  9-C ) :  -0.1106 B(  2-C ,  7-O ) :   2.1243 B(  3-C ,  5-O ) :   2.1116
B(  4-Br, 16-H ) :   0.1397 B(  8-C ,  9-C ) :   2.1059 B(  8-C , 11-C ) :   0.1902
B(  8-C , 14-C ) :   0.1599 B(  8-C , 21-H ) :   0.1424 B(  8-C , 23-H ) :   1.1284
B(  9-C , 21-H ) :   0.8972 B(  9-C , 23-H ) :  -0.1019 B( 10-C , 11-C ) :   0.8988
B( 10-C , 14-C ) :   1.2080 B( 10-C , 22-H ) :   1.1550 B( 11-C , 12-O ) :   1.1340
B( 11-C , 13-O ) :   1.0076 B( 12-O , 16-H ) :   0.8091 B( 13-O , 17-C ) :   0.8397
B( 14-C , 15-O ) :   1.4297 B( 14-C , 24-H ) :   1.0644 B( 17-C , 18-H ) :   1.0572
B( 17-C , 19-H ) :   0.9742 B( 17-C , 20-H ) :   0.9713

FINAL SINGLE POINT ENERGY     -3451.422849663772

DIPOLE MOMENT
-------------
                                X             Y             Z
Electronic contribution:    156.36095       7.32501       1.59455
Nuclear contribution   :   -160.68759      -5.62073      -0.99353
                        -----------------------------------------
Total Dipole Moment    :     -4.32665       1.70427       0.60102
                        -----------------------------------------
Magnitude (a.u.)       :      4.68888
Magnitude (Debye)      :     11.91820

Rotational constants in cm-1:     0.016566     0.007303     0.006214
Rotational constants in MHz :   496.645586   218.925333   186.291690

                             ****ORCA TERMINATED NORMALLY****
TOTAL RUN TIME: 0 days 0 hours 13 minutes 50 seconds 704 msec
