                         Program Version 4.2.0 -  RELEASE  -
|  1> #
|  2> # TMB29_C2 wB97X-V/Def2-TZVPPD
|  3> #
|  4> ! wb97x-v def2-tzvppd def2/jk grid4 nofinalgrid
|  5>
|  6> *xyz 1 1
|  7> C        0.315194   -1.265840   -0.205097
|  8> C        1.442343   -0.626838    0.044790
|  9> C        0.309905   -2.700146   -0.639207
| 10> H        1.304587   -3.137496   -0.733589
| 11> H       -0.263876   -3.299051    0.071387
| 12> H       -0.202915   -2.796953   -1.598442
| 13> C        1.798588    0.767906    0.516696
| 14> O        3.282693    0.709723    0.495405
| 15> C        3.659486   -0.471899    0.173285
| 16> O        2.736849   -1.295199   -0.102354
| 17> C        1.344136    1.838147   -0.506262
| 18> O        0.287215    2.374668   -0.320274
| 19> C        2.219880    2.103298   -1.689301
| 20> H        2.470349    1.173144   -2.206730
| 21> H        1.702341    2.771806   -2.372494
| 22> H        3.157528    2.564787   -1.369834
| 23> C        5.078697   -0.839761    0.144564
| 24> H        5.213504   -1.795905   -0.353509
| 25> H        5.652959   -0.054437   -0.347617
| 26> H        5.438400   -0.910855    1.175413
| 27> C        1.364152    1.101522    1.920814
| 28> H        1.754676    2.072052    2.227431
| 29> H        0.275994    1.149047    1.931402
| 30> H        1.690154    0.330993    2.618895
| 31> Au      -1.496985   -0.316099   -0.013075
| 32> P       -3.546234    0.682452    0.150815
| 33> H       -3.831804    1.712524   -0.762172
| 34> H       -4.687337   -0.122280   -0.012331
| 35> H       -3.867595    1.325764    1.359005
| 36> *
| 37>
| 38> %maxcore 5000
| 39>
| 40> %pal
| 41> nprocs = 24
| 42> end
| 43>
| 44>
| 45>                          ****END OF INPUT****

CARTESIAN COORDINATES (ANGSTROEM)
---------------------------------
  C      0.315194   -1.265840   -0.205097
  C      1.442343   -0.626838    0.044790
  C      0.309905   -2.700146   -0.639207
  H      1.304587   -3.137496   -0.733589
  H     -0.263876   -3.299051    0.071387
  H     -0.202915   -2.796953   -1.598442
  C      1.798588    0.767906    0.516696
  O      3.282693    0.709723    0.495405
  C      3.659486   -0.471899    0.173285
  O      2.736849   -1.295199   -0.102354
  C      1.344136    1.838147   -0.506262
  O      0.287215    2.374668   -0.320274
  C      2.219880    2.103298   -1.689301
  H      2.470349    1.173144   -2.206730
  H      1.702341    2.771806   -2.372494
  H      3.157528    2.564787   -1.369834
  C      5.078697   -0.839761    0.144564
  H      5.213504   -1.795905   -0.353509
  H      5.652959   -0.054437   -0.347617
  H      5.438400   -0.910855    1.175413
  C      1.364152    1.101522    1.920814
  H      1.754676    2.072052    2.227431
  H      0.275994    1.149047    1.931402
  H      1.690154    0.330993    2.618895
  Au    -1.496985   -0.316099   -0.013075
  P     -3.546234    0.682452    0.150815
  H     -3.831804    1.712524   -0.762172
  H     -4.687337   -0.122280   -0.012331
  H     -3.867595    1.325764    1.359005

 Total Charge           Charge          ....    1
 Multiplicity           Mult            ....    1
 Number of Electrons    NEL             ....  126
 Basis Dimension        Dim             ....  815

ORBITAL ENERGIES
----------------

  NO   OCC          E(Eh)            E(eV)
   0   2.0000     -77.233175     -2101.6215
   1   2.0000     -19.468949      -529.7770
   2   2.0000     -19.465175      -529.6744
   3   2.0000     -19.343501      -526.3634
   4   2.0000     -10.619392      -288.9684
   5   2.0000     -10.514491      -286.1138
   6   2.0000     -10.503995      -285.8282
   7   2.0000     -10.471748      -284.9507
   8   2.0000     -10.450360      -284.3688
   9   2.0000     -10.408502      -283.2297
  10   2.0000     -10.401733      -283.0455
  11   2.0000     -10.401595      -283.0418
  12   2.0000     -10.378350      -282.4093
  13   2.0000      -6.816429      -185.4845
  14   2.0000      -4.969661      -135.2313
  15   2.0000      -4.969627      -135.2304
  16   2.0000      -4.966414      -135.1430
  17   2.0000      -4.394435      -119.5787
  18   2.0000      -2.583847       -70.3100
  19   2.0000      -2.567801       -69.8734
  20   2.0000      -2.566932       -69.8498
  21   2.0000      -1.494218       -40.6597
  22   2.0000      -1.379770       -37.5454
  23   2.0000      -1.322769       -35.9944
  24   2.0000      -1.137077       -30.9414
  25   2.0000      -1.056734       -28.7552
  26   2.0000      -1.046072       -28.4651
  27   2.0000      -1.014894       -27.6167
  28   2.0000      -0.959338       -26.1049
  29   2.0000      -0.930510       -25.3205
  30   2.0000      -0.927864       -25.2485
  31   2.0000      -0.908789       -24.7294
  32   2.0000      -0.861207       -23.4346
  33   2.0000      -0.846324       -23.0296
  34   2.0000      -0.805810       -21.9272
  35   2.0000      -0.766032       -20.8448
  36   2.0000      -0.736094       -20.0301
  37   2.0000      -0.712600       -19.3908
  38   2.0000      -0.708570       -19.2812
  39   2.0000      -0.698717       -19.0130
  40   2.0000      -0.692584       -18.8462
  41   2.0000      -0.688539       -18.7361
  42   2.0000      -0.681846       -18.5540
  43   2.0000      -0.678077       -18.4514
  44   2.0000      -0.663697       -18.0601
  45   2.0000      -0.652686       -17.7605
  46   2.0000      -0.651648       -17.7322
  47   2.0000      -0.650990       -17.7143
  48   2.0000      -0.646694       -17.5974
  49   2.0000      -0.637462       -17.3462
  50   2.0000      -0.626641       -17.0518
  51   2.0000      -0.624893       -17.0042
  52   2.0000      -0.616246       -16.7689
  53   2.0000      -0.602162       -16.3857
  54   2.0000      -0.595671       -16.2090
  55   2.0000      -0.554878       -15.0990
  56   2.0000      -0.539121       -14.6702
  57   2.0000      -0.532310       -14.4849
  58   2.0000      -0.531114       -14.4523
  59   2.0000      -0.512266       -13.9395
  60   2.0000      -0.508428       -13.8350
  61   2.0000      -0.469488       -12.7754
  62   2.0000      -0.463153       -12.6030
  63   0.0000      -0.118512        -3.2249
  64   0.0000      -0.080157        -2.1812
  65   0.0000      -0.067012        -1.8235
  66   0.0000      -0.062355        -1.6968
  67   0.0000      -0.054376        -1.4796

MULLIKEN ATOMIC CHARGES
-----------------------
   0 C :    0.444515
   1 C :   -0.904039
   2 C :   -0.500832
   3 H :    0.006354
   4 H :    0.134783
   5 H :    0.128539
   6 C :    2.795531
   7 O :   -0.189108
   8 C :    0.697074
   9 O :   -0.228921
  10 C :   -0.010915
  11 O :   -0.413428
  12 C :   -0.363985
  13 H :    0.055885
  14 H :    0.093186
  15 H :    0.089458
  16 C :   -0.577215
  17 H :    0.108543
  18 H :    0.107865
  19 H :    0.117415
  20 C :   -0.591880
  21 H :    0.058797
  22 H :   -0.006386
  23 H :    0.102316
  24 Au:   -0.418477
  25 P :   -0.009089
  26 H :    0.097845
  27 H :    0.083835
  28 H :    0.092334
Sum of atomic charges:    1.0000000

LOEWDIN ATOMIC CHARGES
----------------------
   0 C :   -0.259200
   1 C :   -0.183636
   2 C :    0.093073
   3 H :   -0.016847
   4 H :   -0.010847
   5 H :   -0.012078
   6 C :   -0.267947
   7 O :    0.167675
   8 C :   -0.294934
   9 O :    0.190053
  10 C :   -0.323638
  11 O :    0.102232
  12 C :    0.237962
  13 H :    0.010940
  14 H :    0.013007
  15 H :    0.012660
  16 C :    0.303060
  17 H :    0.025666
  18 H :    0.029976
  19 H :    0.036724
  20 C :    0.229016
  21 H :    0.021843
  22 H :   -0.010507
  23 H :    0.019612
  24 Au:    0.554501
  25 P :    0.824622
  26 H :   -0.161959
  27 H :   -0.166461
  28 H :   -0.164570

  Mayer bond orders larger than 0.100000
B(  0-C ,  1-C ) :   0.8394 B(  0-C ,  2-C ) :   0.9243 B(  0-C ,  9-O ) :   0.1761
B(  0-C , 10-C ) :   0.1395 B(  0-C , 24-Au) :   0.9674 B(  1-C ,  6-C ) :  -0.7832
B(  1-C ,  9-O ) :   0.7339 B(  1-C , 10-C ) :   0.8353 B(  1-C , 12-C ) :   0.1849
B(  1-C , 20-C ) :   0.3052 B(  1-C , 24-Au) :  -0.3240 B(  2-C ,  3-H ) :   1.0122
B(  2-C ,  4-H ) :   0.9730 B(  2-C ,  5-H ) :   0.9758 B(  2-C , 24-Au) :   0.1707
B(  6-C ,  7-O ) :   0.7199 B(  6-C ,  8-C ) :  -0.1568 B(  6-C , 10-C ) :  -0.3644
B(  6-C , 12-C ) :  -0.1216 B(  6-C , 20-C ) :   0.6355 B(  7-O ,  8-C ) :   1.2840
B(  8-C ,  9-O ) :   1.2676 B(  8-C , 16-C ) :   1.1491 B(  9-O , 16-C ) :  -0.1088
B( 10-C , 11-O ) :   1.7457 B( 10-C , 12-C ) :   1.1441 B( 12-C , 13-H ) :   0.9496
B( 12-C , 14-H ) :   1.0234 B( 12-C , 15-H ) :   0.9597 B( 16-C , 17-H ) :   1.0081
B( 16-C , 18-H ) :   0.9869 B( 16-C , 19-H ) :   0.9290 B( 20-C , 21-H ) :   0.9835
B( 20-C , 22-H ) :   0.9537 B( 20-C , 23-H ) :   1.0032 B( 24-Au, 25-P ) :   0.9335
B( 25-P , 26-H ) :   0.9537 B( 25-P , 27-H ) :   0.9580 B( 25-P , 28-H ) :   0.9535

FINAL SINGLE POINT ENERGY     -1054.520702591349

DIPOLE MOMENT
-------------
                                X             Y             Z
Electronic contribution:   -213.32170     -43.38965      -1.30074
Nuclear contribution   :    216.19870      43.43467       1.47956
                        -----------------------------------------
Total Dipole Moment    :      2.87701       0.04502       0.17882
                        -----------------------------------------
Magnitude (a.u.)       :      2.88291
Magnitude (Debye)      :      7.32777

Rotational constants in cm-1:     0.028648     0.008219     0.007101
Rotational constants in MHz :   858.848987   246.390678   212.872024

                             ****ORCA TERMINATED NORMALLY****
TOTAL RUN TIME: 0 days 0 hours 9 minutes 44 seconds 744 msec
