                         Program Version 4.2.0 -  RELEASE  -
|  1> #
|  2> # TMB28_C1 wB97X-V/Def2-TZVPPD
|  3> #
|  4> ! wb97x-v def2-tzvppd def2/jk grid4 nofinalgrid
|  5>
|  6> *xyz 0 1
|  7> C       -0.405710    1.676464   -0.132905
|  8> C       -0.911585    0.669613    0.356254
|  9> C       -0.058307    2.983711   -0.650101
| 10> H       -0.949750    3.612259   -0.580916
| 11> H        0.745323    3.420879   -0.056180
| 12> H        0.255303    2.923577   -1.693087
| 13> C       -1.922079   -0.256189    0.903797
| 14> O       -2.980737   -0.448274   -0.040247
| 15> C       -3.644467    0.620195   -0.535863
| 16> O       -3.419291    1.755394   -0.218963
| 17> C       -1.315036   -1.659397    1.187254
| 18> O       -0.292489   -1.714090    1.813533
| 19> C       -2.070337   -2.858032    0.718520
| 20> H       -2.050973   -2.878590   -0.373534
| 21> H       -1.593281   -3.749478    1.117849
| 22> H       -3.118661   -2.810283    1.017394
| 23> C       -4.664667    0.177679   -1.534856
| 24> H       -5.268795    1.028888   -1.835351
| 25> H       -4.153929   -0.239550   -2.404894
| 26> H       -5.293840   -0.608504   -1.117133
| 27> C       -2.442836    0.266886    2.244835
| 28> H       -3.205737   -0.415249    2.624458
| 29> H       -1.614369    0.303689    2.950542
| 30> H       -2.869838    1.259004    2.124200
| 31> Au       1.189623    0.069390   -0.174295
| 32> Cl       0.186320   -1.092349   -1.885264
| 33> Cl       3.146088   -1.001725   -0.550079
| 34> Cl       2.155158    1.282412    1.507095
| 35> *
| 36>
| 37> %maxcore 5000
| 38>
| 39> %pal
| 40> nprocs = 24
| 41> end
| 42>
| 43>
| 44>                          ****END OF INPUT****

CARTESIAN COORDINATES (ANGSTROEM)
---------------------------------
  C     -0.405710    1.676464   -0.132905
  C     -0.911585    0.669613    0.356254
  C     -0.058307    2.983711   -0.650101
  H     -0.949750    3.612259   -0.580916
  H      0.745323    3.420879   -0.056180
  H      0.255303    2.923577   -1.693087
  C     -1.922079   -0.256189    0.903797
  O     -2.980737   -0.448274   -0.040247
  C     -3.644467    0.620195   -0.535863
  O     -3.419291    1.755394   -0.218963
  C     -1.315036   -1.659397    1.187254
  O     -0.292489   -1.714090    1.813533
  C     -2.070337   -2.858032    0.718520
  H     -2.050973   -2.878590   -0.373534
  H     -1.593281   -3.749478    1.117849
  H     -3.118661   -2.810283    1.017394
  C     -4.664667    0.177679   -1.534856
  H     -5.268795    1.028888   -1.835351
  H     -4.153929   -0.239550   -2.404894
  H     -5.293840   -0.608504   -1.117133
  C     -2.442836    0.266886    2.244835
  H     -3.205737   -0.415249    2.624458
  H     -1.614369    0.303689    2.950542
  H     -2.869838    1.259004    2.124200
  Au     1.189623    0.069390   -0.174295
  Cl     0.186320   -1.092349   -1.885264
  Cl     3.146088   -1.001725   -0.550079
  Cl     2.155158    1.282412    1.507095

 Total Charge           Charge          ....    0
 Multiplicity           Mult            ....    1
 Number of Electrons    NEL             ....  160
 Basis Dimension        Dim             ....  869

ORBITAL ENERGIES
----------------

  NO   OCC          E(Eh)            E(eV)
   0   2.0000    -101.497189     -2761.8789
   1   2.0000    -101.493967     -2761.7912
   2   2.0000    -101.491944     -2761.7362
   3   2.0000     -19.300002      -525.1798
   4   2.0000     -19.239603      -523.5362
   5   2.0000     -19.236033      -523.4391
   6   2.0000     -10.440418      -284.0982
   7   2.0000     -10.415441      -283.4186
   8   2.0000     -10.402018      -283.0533
   9   2.0000     -10.371515      -282.2233
  10   2.0000     -10.359454      -281.8951
  11   2.0000     -10.328931      -281.0645
  12   2.0000     -10.306187      -280.4456
  13   2.0000     -10.305129      -280.4168
  14   2.0000     -10.295729      -280.1610
  15   2.0000      -9.536488      -259.5010
  16   2.0000      -9.533127      -259.4096
  17   2.0000      -9.530859      -259.3479
  18   2.0000      -7.290401      -198.3819
  19   2.0000      -7.287390      -198.3000
  20   2.0000      -7.285653      -198.2527
  21   2.0000      -7.283212      -198.1863
  22   2.0000      -7.282637      -198.1706
  23   2.0000      -7.279624      -198.0886
  24   2.0000      -7.279145      -198.0756
  25   2.0000      -7.277249      -198.0240
  26   2.0000      -7.276446      -198.0022
  27   2.0000      -4.402668      -119.8027
  28   2.0000      -2.586967       -70.3950
  29   2.0000      -2.584069       -70.3161
  30   2.0000      -2.560725       -69.6809
  31   2.0000      -1.285500       -34.9802
  32   2.0000      -1.221497       -33.2386
  33   2.0000      -1.193162       -32.4676
  34   2.0000      -1.018530       -27.7156
  35   2.0000      -0.975328       -26.5400
  36   2.0000      -0.931414       -25.3451
  37   2.0000      -0.914364       -24.8811
  38   2.0000      -0.912028       -24.8175
  39   2.0000      -0.910150       -24.7665
  40   2.0000      -0.909592       -24.7513
  41   2.0000      -0.893407       -24.3109
  42   2.0000      -0.832924       -22.6650
  43   2.0000      -0.755968       -20.5709
  44   2.0000      -0.726496       -19.7690
  45   2.0000      -0.652366       -17.7518
  46   2.0000      -0.649131       -17.6638
  47   2.0000      -0.640092       -17.4178
  48   2.0000      -0.633523       -17.2390
  49   2.0000      -0.616463       -16.7748
  50   2.0000      -0.611136       -16.6298
  51   2.0000      -0.604101       -16.4384
  52   2.0000      -0.592785       -16.1305
  53   2.0000      -0.577653       -15.7187
  54   2.0000      -0.577192       -15.7062
  55   2.0000      -0.571375       -15.5479
  56   2.0000      -0.568253       -15.4630
  57   2.0000      -0.560044       -15.2396
  58   2.0000      -0.553829       -15.0705
  59   2.0000      -0.549553       -14.9541
  60   2.0000      -0.547386       -14.8951
  61   2.0000      -0.544404       -14.8140
  62   2.0000      -0.541618       -14.7382
  63   2.0000      -0.522081       -14.2066
  64   2.0000      -0.517482       -14.0814
  65   2.0000      -0.506124       -13.7723
  66   2.0000      -0.499594       -13.5946
  67   2.0000      -0.467286       -12.7155
  68   2.0000      -0.457346       -12.4450
  69   2.0000      -0.452897       -12.3240
  70   2.0000      -0.452099       -12.3022
  71   2.0000      -0.426958       -11.6181
  72   2.0000      -0.421938       -11.4815
  73   2.0000      -0.411790       -11.2054
  74   2.0000      -0.402795       -10.9606
  75   2.0000      -0.393787       -10.7155
  76   2.0000      -0.389588       -10.6012
  77   2.0000      -0.387212       -10.5366
  78   2.0000      -0.383711       -10.4413
  79   2.0000      -0.376482       -10.2446
  80   0.0000      -0.070432        -1.9166
  81   0.0000       0.019685         0.5357
  82   0.0000       0.032024         0.8714
  83   0.0000       0.037812         1.0289
  84   0.0000       0.050993         1.3876

MULLIKEN ATOMIC CHARGES
-----------------------
   0 C :    1.518439
   1 C :   -1.571505
   2 C :   -0.551725
   3 H :    0.101642
   4 H :    0.104371
   5 H :    0.098458
   6 C :    2.656511
   7 O :   -0.184074
   8 C :    0.561065
   9 O :   -0.469651
  10 C :   -0.152911
  11 O :   -0.494385
  12 C :   -0.199194
  13 H :    0.045299
  14 H :    0.085825
  15 H :    0.097846
  16 C :   -0.368450
  17 H :    0.083706
  18 H :    0.057462
  19 H :    0.084488
  20 C :   -0.877422
  21 H :    0.114104
  22 H :    0.157943
  23 H :    0.138518
  24 Au:    0.201837
  25 Cl:   -0.447690
  26 Cl:   -0.339023
  27 Cl:   -0.451482
Sum of atomic charges:   -0.0000000

LOEWDIN ATOMIC CHARGES
----------------------
   0 C :   -0.162013
   1 C :   -0.111299
   2 C :    0.151142
   3 H :    0.013224
   4 H :   -0.014821
   5 H :    0.008540
   6 C :   -0.362551
   7 O :    0.039233
   8 C :   -0.456067
   9 O :    0.129045
  10 C :   -0.363468
  11 O :    0.093146
  12 C :    0.221961
  13 H :   -0.001734
  14 H :    0.008946
  15 H :    0.006011
  16 C :    0.244781
  17 H :    0.003763
  18 H :    0.010890
  19 H :    0.005795
  20 C :    0.243663
  21 H :    0.018873
  22 H :    0.017912
  23 H :    0.002209
  24 Au:    0.314606
  25 Cl:    0.013698
  26 Cl:   -0.073933
  27 Cl:   -0.001553

  Mayer bond orders larger than 0.100000
B(  0-C ,  1-C ) :   0.7934 B(  0-C ,  2-C ) :   0.8245 B(  0-C ,  6-C ) :   0.1603
B(  0-C ,  9-O ) :  -0.1134 B(  0-C , 10-C ) :  -0.1696 B(  0-C , 25-Cl) :  -0.3821
B(  0-C , 27-Cl) :   0.2129 B(  1-C ,  6-C ) :   0.3763 B(  1-C ,  7-O ) :   0.1675
B(  1-C , 10-C ) :   0.2188 B(  1-C , 20-C ) :   0.5902 B(  1-C , 24-Au) :   0.6263
B(  1-C , 27-Cl) :  -0.4475 B(  2-C ,  3-H ) :   1.0266 B(  2-C ,  4-H ) :   0.9561
B(  2-C ,  5-H ) :   1.0024 B(  6-C ,  7-O ) :   0.4142 B(  6-C ,  8-C ) :  -0.1407
B(  6-C ,  9-O ) :   0.1756 B(  6-C , 10-C ) :   0.1370 B(  6-C , 11-O ) :  -0.2157
B(  6-C , 12-C ) :   0.1081 B(  6-C , 20-C ) :   0.2955 B(  6-C , 21-H ) :  -0.1004
B(  6-C , 24-Au) :  -0.1352 B(  6-C , 25-Cl) :   0.2274 B(  7-O ,  8-C ) :   1.0148
B(  8-C ,  9-O ) :   1.7851 B(  8-C , 16-C ) :   1.0042 B( 10-C , 11-O ) :   1.7865
B( 10-C , 12-C ) :   1.0599 B( 10-C , 24-Au) :  -0.1916 B( 11-O , 12-C ) :   0.1050
B( 12-C , 13-H ) :   0.9342 B( 12-C , 14-H ) :   1.0422 B( 12-C , 15-H ) :   0.9156
B( 16-C , 17-H ) :   1.0327 B( 16-C , 18-H ) :   0.9702 B( 16-C , 19-H ) :   0.9714
B( 20-C , 21-H ) :   1.0208 B( 20-C , 22-H ) :   0.9868 B( 20-C , 23-H ) :   0.9315
B( 24-Au, 25-Cl) :   0.9240 B( 24-Au, 26-Cl) :   0.7846 B( 24-Au, 27-Cl) :   0.8841
B( 25-Cl, 27-Cl) :   0.1237

FINAL SINGLE POINT ENERGY     -2092.073873076120

DIPOLE MOMENT
-------------
                                X             Y             Z
Electronic contribution:    184.78132       8.39571     -26.28974
Nuclear contribution   :   -188.12551      -7.68230      26.09317
                        -----------------------------------------
Total Dipole Moment    :     -3.34419       0.71342      -0.19657
                        -----------------------------------------
Magnitude (a.u.)       :      3.42508
Magnitude (Debye)      :      8.70587

Rotational constants in cm-1:     0.016324     0.007365     0.006921
Rotational constants in MHz :   489.388468   220.811279   207.480820

                             ****ORCA TERMINATED NORMALLY****
TOTAL RUN TIME: 0 days 0 hours 14 minutes 39 seconds 138 msec
