                         Program Version 4.2.0 -  RELEASE  -
|  1> #
|  2> # TMB20_C1 wB97X-V/Def2-TZVPPD
|  3> #
|  4> ! wb97x-v def2-tzvppd def2/jk grid4 nofinalgrid
|  5>
|  6> *xyz 0 1
|  7> Re      -1.072665    0.212376   -0.034636
|  8> C       -1.072260   -0.271683    1.857255
|  9> C       -2.882577   -0.347239   -0.151918
| 10> C       -1.671800    1.974535    0.387813
| 11> Br      -0.106106   -2.222959   -0.227559
| 12> O       -2.042355    3.032773    0.649150
| 13> O       -1.092539   -0.543239    2.965184
| 14> O       -3.977345   -0.680746   -0.233754
| 15> C       -1.097144    1.301488   -2.052782
| 16> C       -0.757943    0.130940   -2.251371
| 17> C        3.116548    1.792974   -0.035452
| 18> C        3.822495    0.593532    0.034050
| 19> O        3.256440   -0.568022    0.077602
| 20> O        5.128051    0.619793    0.055969
| 21> C        1.730040    1.757413   -0.054388
| 22> O        1.074850    0.675289   -0.001074
| 23> H        2.259004   -0.423965    0.051981
| 24> C        5.826586   -0.629933    0.127198
| 25> H        6.879482   -0.365214    0.136783
| 26> H        5.557636   -1.164457    1.037079
| 27> H        5.594141   -1.245208   -0.740821
| 28> H       -0.446457   -0.764543   -2.749196
| 29> H        3.656243    2.725032   -0.072675
| 30> H       -1.374127    2.315189   -2.254725
| 31> H        1.177176    2.699572   -0.113184
| 32> *
| 33>
| 34> %maxcore 5000
| 35>
| 36> %pal
| 37> nprocs = 24
| 38> end
| 39>
| 40>
| 41>                          ****END OF INPUT****

CARTESIAN COORDINATES (ANGSTROEM)
---------------------------------
  Re    -1.072665    0.212376   -0.034636
  C     -1.072260   -0.271683    1.857255
  C     -2.882577   -0.347239   -0.151918
  C     -1.671800    1.974535    0.387813
  Br    -0.106106   -2.222959   -0.227559
  O     -2.042355    3.032773    0.649150
  O     -1.092539   -0.543239    2.965184
  O     -3.977345   -0.680746   -0.233754
  C     -1.097144    1.301488   -2.052782
  C     -0.757943    0.130940   -2.251371
  C      3.116548    1.792974   -0.035452
  C      3.822495    0.593532    0.034050
  O      3.256440   -0.568022    0.077602
  O      5.128051    0.619793    0.055969
  C      1.730040    1.757413   -0.054388
  O      1.074850    0.675289   -0.001074
  H      2.259004   -0.423965    0.051981
  C      5.826586   -0.629933    0.127198
  H      6.879482   -0.365214    0.136783
  H      5.557636   -1.164457    1.037079
  H      5.594141   -1.245208   -0.740821
  H     -0.446457   -0.764543   -2.749196
  H      3.656243    2.725032   -0.072675
  H     -1.374127    2.315189   -2.254725
  H      1.177176    2.699572   -0.113184

 Total Charge           Charge          ....    0
 Multiplicity           Mult            ....    1
 Number of Electrons    NEL             ....  160
 Basis Dimension        Dim             ....  825

ORBITAL ENERGIES
----------------

  NO   OCC          E(Eh)            E(eV)
   0   2.0000    -482.586955    -13131.8586
   1   2.0000     -62.460932     -1699.6484
   2   2.0000     -56.265653     -1531.0662
   3   2.0000     -56.263972     -1531.0205
   4   2.0000     -56.263822     -1531.0164
   5   2.0000     -19.316506      -525.6288
   6   2.0000     -19.300421      -525.1912
   7   2.0000     -19.292763      -524.9828
   8   2.0000     -19.282196      -524.6952
   9   2.0000     -19.271816      -524.4128
  10   2.0000     -19.257618      -524.0264
  11   2.0000     -10.464828      -284.7625
  12   2.0000     -10.395451      -282.8746
  13   2.0000     -10.394800      -282.8569
  14   2.0000     -10.393297      -282.8160
  15   2.0000     -10.379291      -282.4349
  16   2.0000     -10.364016      -282.0192
  17   2.0000     -10.318465      -280.7797
  18   2.0000     -10.308663      -280.5130
  19   2.0000     -10.296421      -280.1799
  20   2.0000      -8.729147      -237.5322
  21   2.0000      -6.555423      -178.3821
  22   2.0000      -6.550138      -178.2383
  23   2.0000      -6.549707      -178.2266
  24   2.0000      -3.329429       -90.5984
  25   2.0000      -2.677706       -72.8641
  26   2.0000      -2.676335       -72.8268
  27   2.0000      -2.676017       -72.8181
  28   2.0000      -2.671868       -72.7052
  29   2.0000      -2.671858       -72.7050
  30   2.0000      -1.888816       -51.3973
  31   2.0000      -1.886973       -51.3472
  32   2.0000      -1.883564       -51.2544
  33   2.0000      -1.317502       -35.8511
  34   2.0000      -1.269985       -34.5580
  35   2.0000      -1.259549       -34.2741
  36   2.0000      -1.249011       -33.9873
  37   2.0000      -1.239824       -33.7373
  38   2.0000      -1.208673       -32.8897
  39   2.0000      -0.966104       -26.2890
  40   2.0000      -0.933152       -25.3924
  41   2.0000      -0.897307       -24.4170
  42   2.0000      -0.829970       -22.5846
  43   2.0000      -0.790695       -21.5159
  44   2.0000      -0.784782       -21.3550
  45   2.0000      -0.719109       -19.5680
  46   2.0000      -0.708485       -19.2788
  47   2.0000      -0.701344       -19.0845
  48   2.0000      -0.686511       -18.6809
  49   2.0000      -0.681524       -18.5452
  50   2.0000      -0.661977       -18.0133
  51   2.0000      -0.660610       -17.9761
  52   2.0000      -0.646813       -17.6007
  53   2.0000      -0.632208       -17.2032
  54   2.0000      -0.609214       -16.5776
  55   2.0000      -0.597133       -16.2488
  56   2.0000      -0.588297       -16.0084
  57   2.0000      -0.584899       -15.9159
  58   2.0000      -0.583095       -15.8668
  59   2.0000      -0.580327       -15.7915
  60   2.0000      -0.577643       -15.7185
  61   2.0000      -0.571818       -15.5600
  62   2.0000      -0.566052       -15.4031
  63   2.0000      -0.562819       -15.3151
  64   2.0000      -0.553772       -15.0689
  65   2.0000      -0.550981       -14.9930
  66   2.0000      -0.543939       -14.8013
  67   2.0000      -0.533468       -14.5164
  68   2.0000      -0.513751       -13.9799
  69   2.0000      -0.483589       -13.1591
  70   2.0000      -0.456483       -12.4215
  71   2.0000      -0.450975       -12.2717
  72   2.0000      -0.433391       -11.7932
  73   2.0000      -0.387718       -10.5504
  74   2.0000      -0.377682       -10.2772
  75   2.0000      -0.373657       -10.1677
  76   2.0000      -0.368467       -10.0265
  77   2.0000      -0.322735        -8.7821
  78   2.0000      -0.320365        -8.7176
  79   2.0000      -0.311023        -8.4634
  80   0.0000      -0.001927        -0.0524
  81   0.0000       0.020494         0.5577
  82   0.0000       0.036157         0.9839
  83   0.0000       0.045663         1.2426
  84   0.0000       0.052685         1.4336

MULLIKEN ATOMIC CHARGES
-----------------------
   0 Re:    0.363088
   1 C :    0.316150
   2 C :    0.590520
   3 C :    0.146817
   4 Br:   -0.658031
   5 O :   -0.329276
   6 O :   -0.233026
   7 O :   -0.314974
   8 C :   -0.026308
   9 C :    0.080509
  10 C :   -0.577200
  11 C :    0.768978
  12 O :   -0.340915
  13 O :   -0.215584
  14 C :    0.709094
  15 O :   -0.690253
  16 H :    0.318547
  17 C :   -0.080337
  18 H :    0.050155
  19 H :    0.113421
  20 H :    0.112559
  21 H :    0.005251
  22 H :   -0.045231
  23 H :   -0.017768
  24 H :   -0.046186
Sum of atomic charges:   -0.0000000

LOEWDIN ATOMIC CHARGES
----------------------
   0 Re:    0.511541
   1 C :   -0.287782
   2 C :   -0.295068
   3 C :   -0.286619
   4 Br:    0.097281
   5 O :    0.110578
   6 O :    0.137293
   7 O :    0.120905
   8 C :    0.029538
   9 C :   -0.031899
  10 C :    0.107782
  11 C :   -0.336346
  12 O :    0.360062
  13 O :    0.064240
  14 C :   -0.102460
  15 O :   -0.162566
  16 H :   -0.216861
  17 C :    0.191646
  18 H :    0.015354
  19 H :    0.018388
  20 H :    0.018315
  21 H :   -0.070978
  22 H :    0.010714
  23 H :   -0.043363
  24 H :    0.040304

  Mayer bond orders larger than 0.100000
B(  0-Re,  1-C ) :   0.9821 B(  0-Re,  2-C ) :   1.3673 B(  0-Re,  3-C ) :   1.2374
B(  0-Re,  4-Br) :   0.3546 B(  0-Re,  7-O ) :   0.1383 B(  0-Re,  8-C ) :   0.6321
B(  0-Re,  9-C ) :   0.4766 B(  0-Re, 15-O ) :   0.3562 B(  1-C ,  2-C ) :  -0.1243
B(  1-C ,  4-Br) :   0.1022 B(  1-C ,  6-O ) :   2.2151 B(  2-C ,  7-O ) :   2.1479
B(  3-C ,  5-O ) :   2.1442 B(  3-C ,  8-C ) :   0.1108 B(  8-C ,  9-C ) :   2.0530
B(  8-C , 23-H ) :   1.0761 B(  9-C , 21-H ) :   1.0455 B( 10-C , 11-C ) :   0.9820
B( 10-C , 14-C ) :   1.1817 B( 10-C , 22-H ) :   1.2347 B( 10-C , 24-H ) :  -0.1261
B( 11-C , 12-O ) :   1.1261 B( 11-C , 13-O ) :   1.0567 B( 11-C , 14-C ) :   0.1332
B( 11-C , 15-O ) :   0.1708 B( 12-O , 16-H ) :   0.8379 B( 13-O , 17-C ) :   0.8319
B( 14-C , 15-O ) :   1.1315 B( 14-C , 22-H ) :  -0.1100 B( 14-C , 24-H ) :   1.0550
B( 17-C , 18-H ) :   1.0545 B( 17-C , 19-H ) :   0.9779 B( 17-C , 20-H ) :   0.9776

FINAL SINGLE POINT ENERGY     -3451.483088436577

DIPOLE MOMENT
-------------
                                X             Y             Z
Electronic contribution:   -158.44914      14.35544      -3.92838
Nuclear contribution   :    161.40681     -12.70221       3.21078
                        -----------------------------------------
Total Dipole Moment    :      2.95767       1.65323      -0.71760
                        -----------------------------------------
Magnitude (a.u.)       :      3.46351
Magnitude (Debye)      :      8.80355

Rotational constants in cm-1:     0.015589     0.006706     0.005713
Rotational constants in MHz :   467.340547   201.035293   171.274519

                             ****ORCA TERMINATED NORMALLY****
TOTAL RUN TIME: 0 days 0 hours 13 minutes 1 seconds 800 msec
