                         Program Version 4.2.0 -  RELEASE  -
|  1> #
|  2> # TMB20_I1 wB97X-V/Def2-TZVPPD
|  3> #
|  4> ! wb97x-v def2-tzvppd def2/jk grid4 nofinalgrid
|  5>
|  6> *xyz 0 1
|  7> Re       0.721260    0.301703   -0.012347
|  8> C        1.851141    0.452958   -1.678261
|  9> C        1.971728    0.634914    1.425372
| 10> C        0.763580    2.214165   -0.101283
| 11> Br       1.710512   -2.064741    0.019177
| 12> O        0.816608    3.358474   -0.166463
| 13> O        2.493283    0.513036   -2.612271
| 14> O        2.652573    0.808904    2.320449
| 15> C       -1.780395   -0.133590    1.665167
| 16> C       -0.470905   -0.371203    1.638632
| 17> C       -2.365069    0.652857    0.526821
| 18> C       -3.493010   -0.159458   -0.075600
| 19> O       -3.300943   -1.161632   -0.733339
| 20> O       -4.693453    0.297769    0.229376
| 21> C       -1.280010    0.876972   -0.512116
| 22> O       -0.953000   -0.240509   -1.297416
| 23> H       -1.566319   -0.977006   -1.049921
| 24> C       -5.797043   -0.483161   -0.244906
| 25> H       -6.688437    0.024549    0.111717
| 26> H       -5.787691   -0.527184   -1.333247
| 27> H       -5.742358   -1.494851    0.155119
| 28> H       -0.050439   -0.962173    2.449658
| 29> H       -2.758296    1.619346    0.851818
| 30> H       -2.454065   -0.501260    2.435709
| 31> H       -1.435420    1.741704   -1.151672
| 32> *
| 33>
| 34> %maxcore 5000
| 35>
| 36> %pal
| 37> nprocs = 24
| 38> end
| 39>
| 40>
| 41>                          ****END OF INPUT****

CARTESIAN COORDINATES (ANGSTROEM)
---------------------------------
  Re     0.721260    0.301703   -0.012347
  C      1.851141    0.452958   -1.678261
  C      1.971728    0.634914    1.425372
  C      0.763580    2.214165   -0.101283
  Br     1.710512   -2.064741    0.019177
  O      0.816608    3.358474   -0.166463
  O      2.493283    0.513036   -2.612271
  O      2.652573    0.808904    2.320449
  C     -1.780395   -0.133590    1.665167
  C     -0.470905   -0.371203    1.638632
  C     -2.365069    0.652857    0.526821
  C     -3.493010   -0.159458   -0.075600
  O     -3.300943   -1.161632   -0.733339
  O     -4.693453    0.297769    0.229376
  C     -1.280010    0.876972   -0.512116
  O     -0.953000   -0.240509   -1.297416
  H     -1.566319   -0.977006   -1.049921
  C     -5.797043   -0.483161   -0.244906
  H     -6.688437    0.024549    0.111717
  H     -5.787691   -0.527184   -1.333247
  H     -5.742358   -1.494851    0.155119
  H     -0.050439   -0.962173    2.449658
  H     -2.758296    1.619346    0.851818
  H     -2.454065   -0.501260    2.435709
  H     -1.435420    1.741704   -1.151672

 Total Charge           Charge          ....    0
 Multiplicity           Mult            ....    1
 Number of Electrons    NEL             ....  160
 Basis Dimension        Dim             ....  825

ORBITAL ENERGIES
----------------

  NO   OCC          E(Eh)            E(eV)
   0   2.0000    -482.608320    -13132.4400
   1   2.0000     -62.482231     -1700.2279
   2   2.0000     -56.287126     -1531.6506
   3   2.0000     -56.285280     -1531.6003
   4   2.0000     -56.284938     -1531.5910
   5   2.0000     -19.321669      -525.7694
   6   2.0000     -19.313945      -525.5592
   7   2.0000     -19.303628      -525.2784
   8   2.0000     -19.303122      -525.2646
   9   2.0000     -19.302438      -525.2460
  10   2.0000     -19.243459      -523.6411
  11   2.0000     -10.441929      -284.1393
  12   2.0000     -10.420565      -283.5580
  13   2.0000     -10.420405      -283.5536
  14   2.0000     -10.419438      -283.5273
  15   2.0000     -10.383097      -282.5384
  16   2.0000     -10.352858      -281.7156
  17   2.0000     -10.324230      -280.9366
  18   2.0000     -10.278580      -279.6944
  19   2.0000     -10.262488      -279.2565
  20   2.0000      -8.750526      -238.1139
  21   2.0000      -6.577335      -178.9784
  22   2.0000      -6.571522      -178.8202
  23   2.0000      -6.570487      -178.7920
  24   2.0000      -3.364783       -91.5604
  25   2.0000      -2.699528       -73.4579
  26   2.0000      -2.698158       -73.4206
  27   2.0000      -2.697381       -73.3995
  28   2.0000      -2.692770       -73.2740
  29   2.0000      -2.692742       -73.2732
  30   2.0000      -1.927037       -52.4373
  31   2.0000      -1.922733       -52.3202
  32   2.0000      -1.910958       -51.9998
  33   2.0000      -1.299034       -35.3485
  34   2.0000      -1.292239       -35.1636
  35   2.0000      -1.289852       -35.0987
  36   2.0000      -1.281902       -34.8823
  37   2.0000      -1.243931       -33.8491
  38   2.0000      -1.191687       -32.4275
  39   2.0000      -0.984613       -26.7927
  40   2.0000      -0.900063       -24.4920
  41   2.0000      -0.864029       -23.5114
  42   2.0000      -0.851857       -23.1802
  43   2.0000      -0.815028       -22.1780
  44   2.0000      -0.741253       -20.1705
  45   2.0000      -0.731882       -19.9155
  46   2.0000      -0.713642       -19.4192
  47   2.0000      -0.707012       -19.2388
  48   2.0000      -0.702643       -19.1199
  49   2.0000      -0.671595       -18.2750
  50   2.0000      -0.661730       -18.0066
  51   2.0000      -0.649448       -17.6724
  52   2.0000      -0.638427       -17.3725
  53   2.0000      -0.630970       -17.1696
  54   2.0000      -0.623139       -16.9565
  55   2.0000      -0.618244       -16.8233
  56   2.0000      -0.607952       -16.5432
  57   2.0000      -0.604022       -16.4363
  58   2.0000      -0.602947       -16.4070
  59   2.0000      -0.595453       -16.2031
  60   2.0000      -0.593634       -16.1536
  61   2.0000      -0.578388       -15.7387
  62   2.0000      -0.574427       -15.6310
  63   2.0000      -0.571996       -15.5648
  64   2.0000      -0.555405       -15.1133
  65   2.0000      -0.544367       -14.8130
  66   2.0000      -0.537562       -14.6278
  67   2.0000      -0.507499       -13.8097
  68   2.0000      -0.490809       -13.3556
  69   2.0000      -0.488357       -13.2889
  70   2.0000      -0.454116       -12.3571
  71   2.0000      -0.446908       -12.1610
  72   2.0000      -0.426861       -11.6155
  73   2.0000      -0.412052       -11.2125
  74   2.0000      -0.404810       -11.0154
  75   2.0000      -0.388037       -10.5590
  76   2.0000      -0.370100       -10.0709
  77   2.0000      -0.353330        -9.6146
  78   2.0000      -0.339820        -9.2470
  79   2.0000      -0.326822        -8.8933
  80   0.0000      -0.013061        -0.3554
  81   0.0000       0.023511         0.6398
  82   0.0000       0.035472         0.9652
  83   0.0000       0.048720         1.3257
  84   0.0000       0.054772         1.4904

MULLIKEN ATOMIC CHARGES
-----------------------
   0 Re:    0.367595
   1 C :    0.393335
   2 C :    0.627003
   3 C :   -0.039845
   4 Br:   -0.569048
   5 O :   -0.293387
   6 O :   -0.201667
   7 O :   -0.237037
   8 C :   -1.113590
   9 C :    0.351242
  10 C :    1.685848
  11 C :    0.202879
  12 O :   -0.541316
  13 O :   -0.194472
  14 C :   -0.372134
  15 O :   -0.327530
  16 H :    0.253702
  17 C :   -0.115660
  18 H :    0.048423
  19 H :    0.101511
  20 H :    0.112316
  21 H :   -0.103091
  22 H :   -0.026689
  23 H :   -0.114995
  24 H :    0.106608
Sum of atomic charges:    0.0000000

LOEWDIN ATOMIC CHARGES
----------------------
   0 Re:    0.588580
   1 C :   -0.219303
   2 C :   -0.294624
   3 C :   -0.266854
   4 Br:    0.143901
   5 O :    0.150539
   6 O :    0.163293
   7 O :    0.172174
   8 C :   -0.043194
   9 C :   -0.096155
  10 C :   -0.113723
  11 C :   -0.427788
  12 O :    0.141158
  13 O :    0.050051
  14 C :   -0.158226
  15 O :    0.137381
  16 H :   -0.169998
  17 C :    0.178760
  18 H :    0.011774
  19 H :    0.014336
  20 H :    0.015842
  21 H :   -0.062825
  22 H :    0.054250
  23 H :    0.007286
  24 H :    0.023364

  Mayer bond orders larger than 0.100000
B(  0-Re,  1-C ) :   0.8698 B(  0-Re,  2-C ) :   1.1121 B(  0-Re,  3-C ) :   1.2709
B(  0-Re,  4-Br) :   0.4852 B(  0-Re,  8-C ) :   0.1561 B(  0-Re,  9-C ) :   0.5643
B(  0-Re, 14-C ) :   0.7099 B(  0-Re, 15-O ) :   0.3876 B(  1-C ,  6-O ) :   2.3075
B(  2-C ,  7-O ) :   2.2633 B(  3-C ,  5-O ) :   2.1518 B(  3-C , 14-C ) :   0.2303
B(  8-C ,  9-C ) :   1.9578 B(  8-C , 11-C ) :   0.4713 B(  8-C , 14-C ) :   0.5050
B(  8-C , 23-H ) :   1.2541 B(  9-C , 21-H ) :   1.0487 B(  9-C , 23-H ) :  -0.1250
B( 10-C , 11-C ) :   0.2106 B( 10-C , 14-C ) :   0.5446 B( 10-C , 22-H ) :   1.0001
B( 10-C , 23-H ) :  -0.2436 B( 11-C , 12-O ) :   1.5501 B( 11-C , 13-O ) :   0.9461
B( 11-C , 14-C ) :   0.4059 B( 12-O , 14-C ) :   0.1003 B( 13-O , 17-C ) :   0.8287
B( 14-C , 15-O ) :   0.7302 B( 14-C , 24-H ) :   0.9807 B( 15-O , 16-H ) :   0.8715
B( 17-C , 18-H ) :   1.0635 B( 17-C , 19-H ) :   0.9829 B( 17-C , 20-H ) :   0.9734

FINAL SINGLE POINT ENERGY     -3451.491546986790

DIPOLE MOMENT
-------------
                                X             Y             Z
Electronic contribution:    123.11902      30.03862      -3.28635
Nuclear contribution   :   -125.53088     -28.89018       3.09124
                        -----------------------------------------
Total Dipole Moment    :     -2.41186       1.14845      -0.19511
                        -----------------------------------------
Magnitude (a.u.)       :      2.67844
Magnitude (Debye)      :      6.80806

Rotational constants in cm-1:     0.016025     0.007116     0.006337
Rotational constants in MHz :   480.407323   213.341783   189.987107

                             ****ORCA TERMINATED NORMALLY****
TOTAL RUN TIME: 0 days 0 hours 11 minutes 46 seconds 301 msec
