                         Program Version 4.2.0 -  RELEASE  -
|  1> #
|  2> # TMB26_T1 wB97X-V/Def2-TZVPPD
|  3> #
|  4> ! wb97x-v def2-tzvppd def2/jk grid4 nofinalgrid
|  5>
|  6> *xyz 0 1
|  7> C       -2.466566    1.069840    0.238308
|  8> C       -2.451721    0.070166    1.223311
|  9> C       -3.390268   -0.966147    1.168446
| 10> C       -4.328348   -1.022612    0.143865
| 11> C       -4.333048   -0.013813   -0.819144
| 12> C       -3.403006    1.027077   -0.774806
| 13> H       -1.851874    0.172622    2.118430
| 14> H       -5.044959   -1.827220    0.098719
| 15> H       -3.408268    1.764270   -1.566273
| 16> C       -1.433505    2.123552    0.250561
| 17> C       -1.778108    3.466931    0.185146
| 18> C       -0.064979    1.782593    0.286078
| 19> C       -0.802488    4.453319    0.169404
| 20> H       -2.826505    3.739000    0.161874
| 21> C        0.907771    2.775168    0.263672
| 22> C        0.538977    4.108677    0.211691
| 23> H       -1.095064    5.495288    0.125305
| 24> H        1.951961    2.493561    0.298441
| 25> H        1.301937    4.876538    0.199556
| 26> C        0.257789    0.377788    0.312230
| 27> C       -0.304042   -0.722217    0.502541
| 28> H       -0.515543   -1.762216    0.625327
| 29> Au       2.138195   -0.491597   -0.140080
| 30> Cl       1.419476   -1.043843   -2.240555
| 31> Cl       4.263347   -1.139807   -0.651257
| 32> Cl       2.780432    0.097050    1.979491
| 33> O       -3.309425   -1.870502    2.160546
| 34> O       -5.195970    0.025756   -1.845512
| 35> C       -4.244039   -2.927838    2.190952
| 36> H       -4.158173   -3.562934    1.304307
| 37> H       -4.005337   -3.514103    3.075014
| 38> H       -5.267556   -2.550903    2.273203
| 39> C       -6.143948   -1.010635   -1.979012
| 40> H       -6.717344   -0.779100   -2.873359
| 41> H       -5.656738   -1.981777   -2.105696
| 42> H       -6.818943   -1.047780   -1.118843
| 43> *
| 44>
| 45> %maxcore 5000
| 46>
| 47> %pal
| 48> nprocs = 24
| 49> end
| 50>
| 51>
| 52>                          ****END OF INPUT****

CARTESIAN COORDINATES (ANGSTROEM)
---------------------------------
  C     -2.466566    1.069840    0.238308
  C     -2.451721    0.070166    1.223311
  C     -3.390268   -0.966147    1.168446
  C     -4.328348   -1.022612    0.143865
  C     -4.333048   -0.013813   -0.819144
  C     -3.403006    1.027077   -0.774806
  H     -1.851874    0.172622    2.118430
  H     -5.044959   -1.827220    0.098719
  H     -3.408268    1.764270   -1.566273
  C     -1.433505    2.123552    0.250561
  C     -1.778108    3.466931    0.185146
  C     -0.064979    1.782593    0.286078
  C     -0.802488    4.453319    0.169404
  H     -2.826505    3.739000    0.161874
  C      0.907771    2.775168    0.263672
  C      0.538977    4.108677    0.211691
  H     -1.095064    5.495288    0.125305
  H      1.951961    2.493561    0.298441
  H      1.301937    4.876538    0.199556
  C      0.257789    0.377788    0.312230
  C     -0.304042   -0.722217    0.502541
  H     -0.515543   -1.762216    0.625327
  Au     2.138195   -0.491597   -0.140080
  Cl     1.419476   -1.043843   -2.240555
  Cl     4.263347   -1.139807   -0.651257
  Cl     2.780432    0.097050    1.979491
  O     -3.309425   -1.870502    2.160546
  O     -5.195970    0.025756   -1.845512
  C     -4.244039   -2.927838    2.190952
  H     -4.158173   -3.562934    1.304307
  H     -4.005337   -3.514103    3.075014
  H     -5.267556   -2.550903    2.273203
  C     -6.143948   -1.010635   -1.979012
  H     -6.717344   -0.779100   -2.873359
  H     -5.656738   -1.981777   -2.105696
  H     -6.818943   -1.047780   -1.118843

 Total Charge           Charge          ....    0
 Multiplicity           Mult            ....    1
 Number of Electrons    NEL             ....  196
 Basis Dimension        Dim             .... 1122

ORBITAL ENERGIES
----------------

  NO   OCC          E(Eh)            E(eV)
   0   2.0000    -101.482765     -2761.4864
   1   2.0000    -101.482335     -2761.4747
   2   2.0000    -101.475260     -2761.2822
   3   2.0000     -19.283099      -524.7198
   4   2.0000     -19.279766      -524.6291
   5   2.0000     -10.377024      -282.3732
   6   2.0000     -10.375939      -282.3437
   7   2.0000     -10.372736      -282.2565
   8   2.0000     -10.354022      -281.7473
   9   2.0000     -10.351474      -281.6779
  10   2.0000     -10.350307      -281.6462
  11   2.0000     -10.330394      -281.1043
  12   2.0000     -10.325370      -280.9676
  13   2.0000     -10.322183      -280.8809
  14   2.0000     -10.305349      -280.4228
  15   2.0000     -10.304462      -280.3987
  16   2.0000     -10.303494      -280.3723
  17   2.0000     -10.302648      -280.3493
  18   2.0000     -10.299754      -280.2706
  19   2.0000     -10.299592      -280.2662
  20   2.0000     -10.292372      -280.0697
  21   2.0000      -9.521922      -259.1047
  22   2.0000      -9.521440      -259.0916
  23   2.0000      -9.514268      -258.8964
  24   2.0000      -7.275918      -197.9878
  25   2.0000      -7.275507      -197.9766
  26   2.0000      -7.268666      -197.7905
  27   2.0000      -7.268627      -197.7894
  28   2.0000      -7.268161      -197.7767
  29   2.0000      -7.268016      -197.7728
  30   2.0000      -7.267452      -197.7574
  31   2.0000      -7.260870      -197.5783
  32   2.0000      -7.260047      -197.5559
  33   2.0000      -4.386467      -119.3618
  34   2.0000      -2.570029       -69.9340
  35   2.0000      -2.568124       -69.8822
  36   2.0000      -2.545178       -69.2578
  37   2.0000      -1.245010       -33.8785
  38   2.0000      -1.241778       -33.7905
  39   2.0000      -1.053951       -28.6795
  40   2.0000      -1.021577       -27.7985
  41   2.0000      -0.984363       -26.7859
  42   2.0000      -0.947107       -25.7721
  43   2.0000      -0.932680       -25.3795
  44   2.0000      -0.917996       -24.9799
  45   2.0000      -0.909331       -24.7442
  46   2.0000      -0.897279       -24.4162
  47   2.0000      -0.894752       -24.3474
  48   2.0000      -0.892127       -24.2760
  49   2.0000      -0.882236       -24.0069
  50   2.0000      -0.843594       -22.9554
  51   2.0000      -0.791872       -21.5479
  52   2.0000      -0.779090       -21.2001
  53   2.0000      -0.757872       -20.6227
  54   2.0000      -0.737025       -20.0555
  55   2.0000      -0.713984       -19.4285
  56   2.0000      -0.697877       -18.9902
  57   2.0000      -0.665248       -18.1023
  58   2.0000      -0.661309       -17.9951
  59   2.0000      -0.639047       -17.3893
  60   2.0000      -0.633345       -17.2342
  61   2.0000      -0.628945       -17.1145
  62   2.0000      -0.618806       -16.8386
  63   2.0000      -0.617236       -16.7958
  64   2.0000      -0.613894       -16.7049
  65   2.0000      -0.585798       -15.9404
  66   2.0000      -0.578337       -15.7374
  67   2.0000      -0.574095       -15.6219
  68   2.0000      -0.571806       -15.5596
  69   2.0000      -0.566013       -15.4020
  70   2.0000      -0.558970       -15.2104
  71   2.0000      -0.555849       -15.1254
  72   2.0000      -0.538388       -14.6503
  73   2.0000      -0.533450       -14.5159
  74   2.0000      -0.525658       -14.3039
  75   2.0000      -0.523002       -14.2316
  76   2.0000      -0.520428       -14.1616
  77   2.0000      -0.517289       -14.0761
  78   2.0000      -0.493915       -13.4401
  79   2.0000      -0.490070       -13.3355
  80   2.0000      -0.485737       -13.2176
  81   2.0000      -0.476462       -12.9652
  82   2.0000      -0.470931       -12.8147
  83   2.0000      -0.466874       -12.7043
  84   2.0000      -0.461713       -12.5638
  85   2.0000      -0.447144       -12.1674
  86   2.0000      -0.435727       -11.8567
  87   2.0000      -0.418833       -11.3970
  88   2.0000      -0.411404       -11.1949
  89   2.0000      -0.390325       -10.6213
  90   2.0000      -0.385733       -10.4963
  91   2.0000      -0.379382       -10.3235
  92   2.0000      -0.376230       -10.2377
  93   2.0000      -0.374096       -10.1797
  94   2.0000      -0.366736        -9.9794
  95   2.0000      -0.362483        -9.8637
  96   2.0000      -0.349769        -9.5177
  97   2.0000      -0.331021        -9.0075
  98   0.0000      -0.069715        -1.8970
  99   0.0000      -0.009836        -0.2677
 100   0.0000       0.012137         0.3303
 101   0.0000       0.029227         0.7953
 102   0.0000       0.031046         0.8448

MULLIKEN ATOMIC CHARGES
-----------------------
   0 C :    1.486575
   1 C :   -0.300004
   2 C :    0.202590
   3 C :   -0.024530
   4 C :    0.191305
   5 C :   -0.511551
   6 H :   -0.004477
   7 H :   -0.150956
   8 H :   -0.055399
   9 C :    0.304152
  10 C :   -0.011334
  11 C :    0.917222
  12 C :   -0.143959
  13 H :   -0.041357
  14 C :   -0.150089
  15 C :   -0.163394
  16 H :   -0.019888
  17 H :   -0.174310
  18 H :   -0.023623
  19 C :    0.267953
  20 C :    0.389402
  21 H :   -0.155976
  22 Au:    0.001740
  23 Cl:   -0.459495
  24 Cl:   -0.414423
  25 Cl:   -0.474855
  26 O :   -0.324712
  27 O :   -0.321462
  28 C :   -0.220672
  29 H :    0.120884
  30 H :    0.038795
  31 H :    0.134225
  32 C :   -0.185607
  33 H :    0.035269
  34 H :    0.124071
  35 H :    0.117888
Sum of atomic charges:    0.0000000

LOEWDIN ATOMIC CHARGES
----------------------
   0 C :   -0.129287
   1 C :    0.059077
   2 C :   -0.230780
   3 C :    0.126967
   4 C :   -0.217807
   5 C :    0.127895
   6 H :    0.038030
   7 H :   -0.013720
   8 H :    0.032307
   9 C :   -0.090809
  10 C :    0.067311
  11 C :   -0.153919
  12 C :    0.037589
  13 H :    0.019682
  14 C :    0.055904
  15 C :    0.037426
  16 H :    0.008236
  17 H :   -0.010763
  18 H :    0.009289
  19 C :   -0.324716
  20 C :    0.212044
  21 H :   -0.009949
  22 Au:    0.251252
  23 Cl:   -0.062497
  24 Cl:   -0.124408
  25 Cl:   -0.041959
  26 O :   -0.009549
  27 O :   -0.003231
  28 C :    0.128651
  29 H :    0.014027
  30 H :    0.014051
  31 H :    0.014570
  32 C :    0.127449
  33 H :    0.013745
  34 H :    0.014502
  35 H :    0.013388

  Mayer bond orders larger than 0.100000
B(  0-C ,  1-C ) :   0.2210 B(  0-C ,  3-C ) :  -0.4091 B(  0-C ,  5-C ) :   0.6907
B(  0-C ,  6-H ) :  -0.4829 B(  0-C ,  8-H ) :  -0.2229 B(  0-C ,  9-C ) :  -0.9782
B(  0-C , 10-C ) :  -0.1303 B(  0-C , 12-C ) :  -0.2462 B(  0-C , 14-C ) :  -0.1259
B(  0-C , 15-C ) :   0.1269 B(  0-C , 19-C ) :  -0.1376 B(  0-C , 20-C ) :   0.1524
B(  1-C ,  2-C ) :   0.9879 B(  1-C ,  5-C ) :   0.2909 B(  1-C ,  6-H ) :   1.3165
B(  1-C , 10-C ) :   0.5484 B(  1-C , 12-C ) :  -0.1348 B(  1-C , 14-C ) :  -0.1086
B(  1-C , 20-C ) :   0.1873 B(  1-C , 26-O ) :  -0.1371 B(  2-C ,  3-C ) :   1.4002
B(  2-C ,  4-C ) :   0.2265 B(  2-C ,  6-H ) :   0.2674 B(  2-C ,  7-H ) :  -0.1285
B(  2-C ,  9-C ) :  -0.1569 B(  2-C , 10-C ) :  -0.3804 B(  2-C , 12-C ) :   0.1292
B(  2-C , 14-C ) :   0.1601 B(  2-C , 26-O ) :   0.8554 B(  3-C ,  4-C ) :   1.2980
B(  3-C ,  7-H ) :   1.0923 B(  3-C ,  9-C ) :   0.3255 B(  3-C , 10-C ) :   0.1738
B(  4-C ,  5-C ) :   1.3112 B(  4-C ,  9-C ) :  -0.1972 B(  4-C , 10-C ) :  -0.2307
B(  4-C , 11-C ) :   0.1089 B(  4-C , 27-O ) :   0.9402 B(  5-C ,  6-H ) :  -0.1123
B(  5-C ,  8-H ) :   1.1520 B(  5-C , 10-C ) :   0.3641 B(  5-C , 11-C ) :  -0.1373
B(  5-C , 14-C ) :  -0.1292 B(  5-C , 20-C ) :   0.1278 B(  9-C , 10-C ) :   0.3394
B(  9-C , 11-C ) :   0.6919 B(  9-C , 12-C ) :   0.1505 B(  9-C , 13-H ) :  -0.2057
B(  9-C , 19-C ) :  -0.1201 B( 10-C , 11-C ) :   0.1054 B( 10-C , 12-C ) :   1.2443
B( 10-C , 13-H ) :   1.1381 B( 11-C , 14-C ) :   0.8348 B( 11-C , 17-H ) :  -0.3620
B( 11-C , 19-C ) :  -0.3524 B( 11-C , 20-C ) :   0.2662 B( 11-C , 22-Au) :  -0.6492
B( 11-C , 25-Cl) :  -0.2521 B( 12-C , 15-C ) :   1.2033 B( 12-C , 16-H ) :   1.1321
B( 12-C , 18-H ) :  -0.1065 B( 14-C , 15-C ) :   1.2306 B( 14-C , 17-H ) :   1.2367
B( 15-C , 16-H ) :  -0.1007 B( 15-C , 18-H ) :   1.1368 B( 19-C , 20-C ) :   1.4949
B( 19-C , 21-H ) :  -0.3230 B( 19-C , 22-Au) :   0.5362 B( 19-C , 25-Cl) :   0.3292
B( 20-C , 21-H ) :   1.3487 B( 20-C , 23-Cl) :  -0.3535 B( 20-C , 25-Cl) :  -0.3942
B( 22-Au, 23-Cl) :   1.0200 B( 22-Au, 24-Cl) :   0.8305 B( 22-Au, 25-Cl) :   1.0171
B( 23-Cl, 25-Cl) :   0.1232 B( 26-O , 28-C ) :   0.9083 B( 27-O , 32-C ) :   0.8963
B( 28-C , 29-H ) :   0.9699 B( 28-C , 30-H ) :   1.0991 B( 28-C , 31-H ) :   0.9752
B( 32-C , 33-H ) :   1.0947 B( 32-C , 34-H ) :   0.9784 B( 32-C , 35-H ) :   0.9764

FINAL SINGLE POINT ENERGY     -2284.748405438585

DIPOLE MOMENT
-------------
                                X             Y             Z
Electronic contribution:    332.54220     -71.58785     -21.67363
Nuclear contribution   :   -337.50313      71.82916      22.27008
                        -----------------------------------------
Total Dipole Moment    :     -4.96093       0.24132       0.59645
                        -----------------------------------------
Magnitude (a.u.)       :      5.00248
Magnitude (Debye)      :     12.71529

Rotational constants in cm-1:     0.008801     0.003370     0.003018
Rotational constants in MHz :   263.837003   101.042363    90.466575

                             ****ORCA TERMINATED NORMALLY****
TOTAL RUN TIME: 0 days 0 hours 33 minutes 29 seconds 918 msec
