                         Program Version 4.2.0 -  RELEASE  -
|  1> #
|  2> # TMB29_T1 wB97X-V/Def2-TZVPPD
|  3> #
|  4> ! wb97x-v def2-tzvppd def2/jk grid4 nofinalgrid
|  5>
|  6> *xyz 1 1
|  7> C        0.302195   -1.452011   -0.105192
|  8> C        1.172851   -0.582511    0.135564
|  9> C        0.213900   -2.914548   -0.330337
| 10> H        1.214756   -3.345744   -0.317276
| 11> H       -0.388020   -3.382295    0.449588
| 12> H       -0.265099   -3.130327   -1.285361
| 13> C        1.829635    0.694580    0.494281
| 14> O        3.171960    0.697894   -0.020842
| 15> C        3.732653   -0.510299   -0.087290
| 16> O        3.070225   -1.500320    0.142290
| 17> C        1.080449    1.884401   -0.190647
| 18> O        0.030957    2.232541    0.278513
| 19> C        1.716450    2.521139   -1.379228
| 20> H        1.946637    1.771224   -2.139595
| 21> H        1.044796    3.276244   -1.779459
| 22> H        2.667103    2.978996   -1.097340
| 23> C        5.172060   -0.490501   -0.447138
| 24> H        5.507658   -1.496958   -0.678577
| 25> H        5.341426    0.179166   -1.290238
| 26> H        5.741456   -0.101237    0.400021
| 27> C        1.875471    0.903584    2.001010
| 28> H        2.434564    1.811885    2.227294
| 29> H        0.861108    1.010944    2.380408
| 30> H        2.353249    0.052039    2.484190
| 31> Au      -1.471331   -0.309724   -0.041930
| 32> P       -3.515153    0.680562    0.009165
| 33> H       -3.799713    1.607377   -1.007127
| 34> H       -4.633094   -0.165367   -0.073799
| 35> H       -3.823490    1.429925    1.156436
| 36> *
| 37>
| 38> %maxcore 5000
| 39>
| 40> %pal
| 41> nprocs = 24
| 42> end
| 43>
| 44>
| 45>                          ****END OF INPUT****

CARTESIAN COORDINATES (ANGSTROEM)
---------------------------------
  C      0.302195   -1.452011   -0.105192
  C      1.172851   -0.582511    0.135564
  C      0.213900   -2.914548   -0.330337
  H      1.214756   -3.345744   -0.317276
  H     -0.388020   -3.382295    0.449588
  H     -0.265099   -3.130327   -1.285361
  C      1.829635    0.694580    0.494281
  O      3.171960    0.697894   -0.020842
  C      3.732653   -0.510299   -0.087290
  O      3.070225   -1.500320    0.142290
  C      1.080449    1.884401   -0.190647
  O      0.030957    2.232541    0.278513
  C      1.716450    2.521139   -1.379228
  H      1.946637    1.771224   -2.139595
  H      1.044796    3.276244   -1.779459
  H      2.667103    2.978996   -1.097340
  C      5.172060   -0.490501   -0.447138
  H      5.507658   -1.496958   -0.678577
  H      5.341426    0.179166   -1.290238
  H      5.741456   -0.101237    0.400021
  C      1.875471    0.903584    2.001010
  H      2.434564    1.811885    2.227294
  H      0.861108    1.010944    2.380408
  H      2.353249    0.052039    2.484190
  Au    -1.471331   -0.309724   -0.041930
  P     -3.515153    0.680562    0.009165
  H     -3.799713    1.607377   -1.007127
  H     -4.633094   -0.165367   -0.073799
  H     -3.823490    1.429925    1.156436

 Total Charge           Charge          ....    1
 Multiplicity           Mult            ....    1
 Number of Electrons    NEL             ....  126
 Basis Dimension        Dim             ....  815

ORBITAL ENERGIES
----------------

  NO   OCC          E(Eh)            E(eV)
   0   2.0000     -77.257502     -2102.2835
   1   2.0000     -19.416641      -528.3537
   2   2.0000     -19.364499      -526.9348
   3   2.0000     -19.352225      -526.6008
   4   2.0000     -10.556205      -287.2489
   5   2.0000     -10.519398      -286.2474
   6   2.0000     -10.513226      -286.0794
   7   2.0000     -10.481122      -285.2058
   8   2.0000     -10.437285      -284.0130
   9   2.0000     -10.406819      -283.1839
  10   2.0000     -10.406488      -283.1749
  11   2.0000     -10.401277      -283.0331
  12   2.0000     -10.399717      -282.9907
  13   2.0000      -6.840475      -186.1388
  14   2.0000      -4.993597      -135.8827
  15   2.0000      -4.993567      -135.8819
  16   2.0000      -4.990812      -135.8069
  17   2.0000      -4.423010      -120.3562
  18   2.0000      -2.613438       -71.1153
  19   2.0000      -2.596673       -70.6591
  20   2.0000      -2.596490       -70.6541
  21   2.0000      -1.413247       -38.4564
  22   2.0000      -1.332442       -36.2576
  23   2.0000      -1.307532       -35.5798
  24   2.0000      -1.116116       -30.3711
  25   2.0000      -1.061691       -28.8901
  26   2.0000      -1.016804       -27.6686
  27   2.0000      -1.014338       -27.6015
  28   2.0000      -0.971087       -26.4246
  29   2.0000      -0.951900       -25.9025
  30   2.0000      -0.926030       -25.1986
  31   2.0000      -0.866843       -23.5880
  32   2.0000      -0.835401       -22.7324
  33   2.0000      -0.774798       -21.0833
  34   2.0000      -0.760221       -20.6867
  35   2.0000      -0.749001       -20.3814
  36   2.0000      -0.723231       -19.6801
  37   2.0000      -0.714593       -19.4451
  38   2.0000      -0.704245       -19.1635
  39   2.0000      -0.692494       -18.8437
  40   2.0000      -0.686100       -18.6697
  41   2.0000      -0.676369       -18.4049
  42   2.0000      -0.671730       -18.2787
  43   2.0000      -0.670419       -18.2430
  44   2.0000      -0.667342       -18.1593
  45   2.0000      -0.653298       -17.7771
  46   2.0000      -0.652919       -17.7668
  47   2.0000      -0.648324       -17.6418
  48   2.0000      -0.642740       -17.4898
  49   2.0000      -0.626383       -17.0447
  50   2.0000      -0.621979       -16.9249
  51   2.0000      -0.616314       -16.7708
  52   2.0000      -0.602956       -16.4073
  53   2.0000      -0.587535       -15.9877
  54   2.0000      -0.580608       -15.7991
  55   2.0000      -0.571868       -15.5613
  56   2.0000      -0.569637       -15.5006
  57   2.0000      -0.561782       -15.2869
  58   2.0000      -0.558574       -15.1996
  59   2.0000      -0.526397       -14.3240
  60   2.0000      -0.518330       -14.1045
  61   2.0000      -0.494747       -13.4628
  62   2.0000      -0.490831       -13.3562
  63   0.0000      -0.121283        -3.3003
  64   0.0000      -0.086924        -2.3653
  65   0.0000      -0.079140        -2.1535
  66   0.0000      -0.059664        -1.6235
  67   0.0000      -0.051975        -1.4143

MULLIKEN ATOMIC CHARGES
-----------------------
   0 C :    0.642025
   1 C :   -1.058608
   2 C :   -0.455482
   3 H :    0.040383
   4 H :    0.123645
   5 H :    0.123116
   6 C :    2.584970
   7 O :   -0.277857
   8 C :    0.535870
   9 O :   -0.449120
  10 C :    0.071544
  11 O :   -0.462466
  12 C :   -0.254248
  13 H :    0.068297
  14 H :    0.100093
  15 H :    0.067867
  16 C :   -0.447518
  17 H :    0.102656
  18 H :    0.095951
  19 H :    0.103994
  20 C :   -0.742830
  21 H :    0.086003
  22 H :    0.095807
  23 H :    0.114505
  24 Au:   -0.130693
  25 P :    0.013468
  26 H :    0.105161
  27 H :    0.097302
  28 H :    0.106164
Sum of atomic charges:    1.0000000

LOEWDIN ATOMIC CHARGES
----------------------
   0 C :   -0.238106
   1 C :    0.047510
   2 C :    0.130289
   3 H :   -0.004464
   4 H :   -0.003028
   5 H :   -0.005303
   6 C :   -0.345444
   7 O :    0.077958
   8 C :   -0.413413
   9 O :    0.145686
  10 C :   -0.326158
  11 O :    0.064584
  12 C :    0.235561
  13 H :    0.014660
  14 H :    0.011529
  15 H :    0.016112
  16 C :    0.269456
  17 H :    0.014372
  18 H :    0.015935
  19 H :    0.021747
  20 C :    0.241114
  21 H :    0.022997
  22 H :    0.009258
  23 H :    0.018118
  24 Au:    0.596039
  25 P :    0.851192
  26 H :   -0.155083
  27 H :   -0.159520
  28 H :   -0.153599

  Mayer bond orders larger than 0.100000
B(  0-C ,  1-C ) :   1.1583 B(  0-C ,  2-C ) :   1.0871 B(  0-C , 24-Au) :   0.4556
B(  1-C ,  2-C ) :  -0.2849 B(  1-C ,  6-C ) :  -0.1319 B(  1-C , 10-C ) :   0.5213
B(  1-C , 20-C ) :   0.3486 B(  1-C , 24-Au) :   0.3795 B(  2-C ,  3-H ) :   1.0396
B(  2-C ,  4-H ) :   0.9698 B(  2-C ,  5-H ) :   0.9679 B(  6-C ,  7-O ) :   0.6056
B(  6-C ,  8-C ) :  -0.1041 B(  6-C , 20-C ) :   0.5863 B(  7-O ,  8-C ) :   1.1023
B(  7-O , 20-C ) :   0.1398 B(  8-C ,  9-O ) :   1.8090 B(  8-C , 16-C ) :   1.0731
B( 10-C , 11-O ) :   1.7753 B( 10-C , 12-C ) :   1.0892 B( 11-O , 12-C ) :   0.1001
B( 12-C , 13-H ) :   0.9360 B( 12-C , 14-H ) :   1.0252 B( 12-C , 15-H ) :   0.9343
B( 16-C , 17-H ) :   1.0021 B( 16-C , 18-H ) :   0.9750 B( 16-C , 19-H ) :   0.9471
B( 20-C , 21-H ) :   0.9972 B( 20-C , 22-H ) :   0.9984 B( 20-C , 23-H ) :   0.9752
B( 24-Au, 25-P ) :   0.9952 B( 25-P , 26-H ) :   0.9486 B( 25-P , 27-H ) :   0.9519
B( 25-P , 28-H ) :   0.9493

FINAL SINGLE POINT ENERGY     -1054.501878443651

DIPOLE MOMENT
-------------
                                X             Y             Z
Electronic contribution:   -212.13310     -43.02009      -5.72465
Nuclear contribution   :    212.91002      43.46471       5.39034
                        -----------------------------------------
Total Dipole Moment    :      0.77692       0.44462      -0.33431
                        -----------------------------------------
Magnitude (a.u.)       :      0.95554
Magnitude (Debye)      :      2.42880

Rotational constants in cm-1:     0.027720     0.008314     0.006995
Rotational constants in MHz :   831.016337   249.254276   209.717578

                             ****ORCA TERMINATED NORMALLY****
TOTAL RUN TIME: 0 days 0 hours 9 minutes 48 seconds 283 msec
