                         Program Version 4.2.0 -  RELEASE  -
|  1> #
|  2> # TMB31_C1 wB97X-V/Def2-TZVPPD
|  3> #
|  4> ! wb97x-v def2-tzvppd def2/jk grid4 nofinalgrid
|  5>
|  6> *xyz 1 1
|  7> Ir      -0.040708    0.096324    0.064455
|  8> C       -0.971708    0.418734    1.931461
|  9> C        1.819460    0.364204   -1.190947
| 10> C        1.490903   -0.994938   -1.162590
| 11> C        1.450197   -1.406167    0.225985
| 12> C        1.875844   -0.290195    1.023097
| 13> C        2.052625    0.814608    0.164170
| 14> H       -0.394638    1.150210    2.498372
| 15> H       -1.993156    0.794195    1.837094
| 16> H       -1.008781   -0.505981    2.508304
| 17> H        1.977900   -0.288415    2.097324
| 18> H        2.352296    1.808383    0.458691
| 19> H        1.885000    0.981073   -2.074563
| 20> H        1.275763   -1.618283   -2.016436
| 21> H        1.275639   -2.406893    0.589421
| 22> C       -1.335861    2.101294   -0.927849
| 23> H       -0.822201    1.778454    0.045587
| 24> H       -0.969200    3.125001   -0.997930
| 25> H       -1.110952    1.579089   -1.850904
| 26> H       -2.401764    2.084149   -0.716661
| 27> P       -1.870306   -1.156932   -0.405763
| 28> H       -1.625569   -2.441008   -0.924735
| 29> H       -2.747711   -1.466666    0.650785
| 30> H       -2.792266   -0.681495   -1.360892
| 31> *
| 32>
| 33> %maxcore 5000
| 34>
| 35> %pal
| 36> nprocs = 24
| 37> end
| 38>
| 39>
| 40>                          ****END OF INPUT****

CARTESIAN COORDINATES (ANGSTROEM)
---------------------------------
  Ir    -0.040708    0.096324    0.064455
  C     -0.971708    0.418734    1.931461
  C      1.819460    0.364204   -1.190947
  C      1.490903   -0.994938   -1.162590
  C      1.450197   -1.406167    0.225985
  C      1.875844   -0.290195    1.023097
  C      2.052625    0.814608    0.164170
  H     -0.394638    1.150210    2.498372
  H     -1.993156    0.794195    1.837094
  H     -1.008781   -0.505981    2.508304
  H      1.977900   -0.288415    2.097324
  H      2.352296    1.808383    0.458691
  H      1.885000    0.981073   -2.074563
  H      1.275763   -1.618283   -2.016436
  H      1.275639   -2.406893    0.589421
  C     -1.335861    2.101294   -0.927849
  H     -0.822201    1.778454    0.045587
  H     -0.969200    3.125001   -0.997930
  H     -1.110952    1.579089   -1.850904
  H     -2.401764    2.084149   -0.716661
  P     -1.870306   -1.156932   -0.405763
  H     -1.625569   -2.441008   -0.924735
  H     -2.747711   -1.466666    0.650785
  H     -2.792266   -0.681495   -1.360892

 Total Charge           Charge          ....    1
 Multiplicity           Mult            ....    1
 Number of Electrons    NEL             ....   88
 Basis Dimension        Dim             ....  621

ORBITAL ENERGIES
----------------

  NO   OCC          E(Eh)            E(eV)
   0   2.0000     -77.266915     -2102.5397
   1   2.0000     -10.468506      -284.8625
   2   2.0000     -10.467743      -284.8418
   3   2.0000     -10.464148      -284.7440
   4   2.0000     -10.462812      -284.7076
   5   2.0000     -10.459918      -284.6288
   6   2.0000     -10.435794      -283.9724
   7   2.0000     -10.391381      -282.7639
   8   2.0000      -6.849038      -186.3718
   9   2.0000      -5.002376      -136.1216
  10   2.0000      -5.002120      -136.1146
  11   2.0000      -4.999373      -136.0399
  12   2.0000      -3.996786      -108.7581
  13   2.0000      -2.350326       -63.9556
  14   2.0000      -2.331364       -63.4396
  15   2.0000      -2.321031       -63.1585
  16   2.0000      -1.208959       -32.8974
  17   2.0000      -1.032069       -28.0840
  18   2.0000      -1.023089       -27.8397
  19   2.0000      -1.007773       -27.4229
  20   2.0000      -0.962494       -26.1908
  21   2.0000      -0.933489       -25.4015
  22   2.0000      -0.842562       -22.9273
  23   2.0000      -0.840567       -22.8730
  24   2.0000      -0.828546       -22.5459
  25   2.0000      -0.730200       -19.8698
  26   2.0000      -0.710908       -19.3448
  27   2.0000      -0.698897       -19.0180
  28   2.0000      -0.694582       -18.9005
  29   2.0000      -0.691237       -18.8095
  30   2.0000      -0.683325       -18.5942
  31   2.0000      -0.670199       -18.2371
  32   2.0000      -0.662045       -18.0152
  33   2.0000      -0.661087       -17.9891
  34   2.0000      -0.660775       -17.9806
  35   2.0000      -0.635957       -17.3053
  36   2.0000      -0.631462       -17.1830
  37   2.0000      -0.623600       -16.9690
  38   2.0000      -0.590771       -16.0757
  39   2.0000      -0.556118       -15.1327
  40   2.0000      -0.546726       -14.8772
  41   2.0000      -0.521690       -14.1959
  42   2.0000      -0.504471       -13.7273
  43   2.0000      -0.478042       -13.0082
  44   0.0000      -0.136872        -3.7245
  45   0.0000      -0.088223        -2.4007
  46   0.0000      -0.072588        -1.9752
  47   0.0000      -0.060527        -1.6470
  48   0.0000      -0.057186        -1.5561

MULLIKEN ATOMIC CHARGES
-----------------------
   0 Ir:    0.492640
   1 C :   -0.611803
   2 C :    0.024912
   3 C :   -0.054804
   4 C :    0.452073
   5 C :   -0.346060
   6 C :    0.173409
   7 H :    0.145495
   8 H :    0.168008
   9 H :    0.122244
  10 H :    0.009597
  11 H :   -0.014821
  12 H :    0.041670
  13 H :    0.022271
  14 H :    0.050838
  15 C :   -0.290300
  16 H :    0.029962
  17 H :    0.055190
  18 H :    0.154107
  19 H :    0.103556
  20 P :    0.099276
  21 H :    0.051788
  22 H :    0.065054
  23 H :    0.055700
Sum of atomic charges:    1.0000000

LOEWDIN ATOMIC CHARGES
----------------------
   0 Ir:    0.934660
   1 C :   -0.029256
   2 C :   -0.049050
   3 C :   -0.061975
   4 C :   -0.101192
   5 C :   -0.058446
   6 C :   -0.049239
   7 H :   -0.079234
   8 H :   -0.092640
   9 H :   -0.084650
  10 H :    0.030862
  11 H :    0.024323
  12 H :    0.024867
  13 H :    0.018768
  14 H :    0.020832
  15 C :    0.255212
  16 H :   -0.145439
  17 H :   -0.017734
  18 H :   -0.058823
  19 H :   -0.029310
  20 P :    0.916720
  21 H :   -0.127248
  22 H :   -0.116339
  23 H :   -0.125670

  Mayer bond orders larger than 0.100000
B(  0-Ir,  1-C ) :   0.6159 B(  0-Ir,  2-C ) :   0.4533 B(  0-Ir,  3-C ) :   0.4136
B(  0-Ir,  4-C ) :   0.5170 B(  0-Ir,  5-C ) :   0.5945 B(  0-Ir,  6-C ) :   0.4048
B(  0-Ir, 15-C ) :   0.1560 B(  0-Ir, 16-H ) :   0.1355 B(  0-Ir, 20-P ) :   0.9311
B(  1-C ,  5-C ) :   0.1452 B(  1-C ,  7-H ) :   0.9902 B(  1-C ,  8-H ) :   0.9582
B(  1-C ,  9-H ) :   1.0189 B(  2-C ,  3-C ) :   1.3489 B(  2-C ,  4-C ) :  -0.2077
B(  2-C ,  6-C ) :   1.0362 B(  2-C , 12-H ) :   0.9827 B(  3-C ,  4-C ) :   1.0328
B(  3-C ,  6-C ) :  -0.1951 B(  3-C , 13-H ) :   1.0317 B(  4-C ,  5-C ) :   0.9795
B(  4-C ,  6-C ) :  -0.2242 B(  4-C , 14-H ) :   0.9284 B(  5-C ,  6-C ) :   1.3076
B(  5-C , 10-H ) :   0.9813 B(  6-C , 11-H ) :   0.9790 B( 15-C , 16-H ) :   0.8710
B( 15-C , 17-H ) :   1.0122 B( 15-C , 18-H ) :   0.9433 B( 15-C , 19-H ) :   0.9889
B( 20-P , 21-H ) :   0.9637 B( 20-P , 22-H ) :   0.9576 B( 20-P , 23-H ) :   0.9600

FINAL SINGLE POINT ENERGY      -721.228971984548

DIPOLE MOMENT
-------------
                                X             Y             Z
Electronic contribution:     -2.94987      10.01516       7.26514
Nuclear contribution   :      2.66689     -10.24599      -8.00272
                        -----------------------------------------
Total Dipole Moment    :     -0.28299      -0.23084      -0.73758
                        -----------------------------------------
Magnitude (a.u.)       :      0.82303
Magnitude (Debye)      :      2.09199

Rotational constants in cm-1:     0.050543     0.032436     0.029954
Rotational constants in MHz :  1515.232111   972.406510   898.012536

                             ****ORCA TERMINATED NORMALLY****
TOTAL RUN TIME: 0 days 0 hours 7 minutes 5 seconds 440 msec
