                         Program Version 4.2.0 -  RELEASE  -
|  1> #
|  2> # TMB31_T1 wB97X-V/Def2-TZVPPD
|  3> #
|  4> ! wb97x-v def2-tzvppd def2/jk grid4 nofinalgrid
|  5>
|  6> *xyz 1 1
|  7> Ir       0.050361    0.056236   -0.150076
|  8> C        0.978842   -1.302743   -1.517387
|  9> C       -1.864665    1.028637    0.563211
| 10> C       -1.426558    0.128925    1.555248
| 11> C       -1.389999   -1.187568    0.972706
| 12> C       -1.852948   -1.076424   -0.368776
| 13> C       -2.115280    0.291316   -0.640524
| 14> H        0.395138   -1.326753   -2.435403
| 15> H        2.003015   -1.039631   -1.784042
| 16> H        0.978935   -2.299217   -1.075482
| 17> H       -1.949414   -1.889112   -1.072248
| 18> H       -2.488115    0.695321   -1.568578
| 19> H       -1.982151    2.094988    0.682898
| 20> H       -1.179131    0.379256    2.575311
| 21> H       -1.144965   -2.105263    1.484015
| 22> C        0.981659    2.033847   -0.552795
| 23> H        0.609290    0.819803   -1.428069
| 24> H        0.362656    2.677374   -1.174650
| 25> H        1.003724    2.445002    0.454509
| 26> H        1.994491    2.026607   -0.953376
| 27> P        1.998129   -0.331589    0.938590
| 28> H        2.205383    0.285042    2.190624
| 29> H        2.302734   -1.672090    1.247762
| 30> H        3.172367    0.056392    0.263634
| 31> *
| 32>
| 33> %maxcore 5000
| 34>
| 35> %pal
| 36> nprocs = 24
| 37> end
| 38>
| 39>
| 40>                          ****END OF INPUT****

CARTESIAN COORDINATES (ANGSTROEM)
---------------------------------
  Ir     0.050361    0.056236   -0.150076
  C      0.978842   -1.302743   -1.517387
  C     -1.864665    1.028637    0.563211
  C     -1.426558    0.128925    1.555248
  C     -1.389999   -1.187568    0.972706
  C     -1.852948   -1.076424   -0.368776
  C     -2.115280    0.291316   -0.640524
  H      0.395138   -1.326753   -2.435403
  H      2.003015   -1.039631   -1.784042
  H      0.978935   -2.299217   -1.075482
  H     -1.949414   -1.889112   -1.072248
  H     -2.488115    0.695321   -1.568578
  H     -1.982151    2.094988    0.682898
  H     -1.179131    0.379256    2.575311
  H     -1.144965   -2.105263    1.484015
  C      0.981659    2.033847   -0.552795
  H      0.609290    0.819803   -1.428069
  H      0.362656    2.677374   -1.174650
  H      1.003724    2.445002    0.454509
  H      1.994491    2.026607   -0.953376
  P      1.998129   -0.331589    0.938590
  H      2.205383    0.285042    2.190624
  H      2.302734   -1.672090    1.247762
  H      3.172367    0.056392    0.263634

 Total Charge           Charge          ....    1
 Multiplicity           Mult            ....    1
 Number of Electrons    NEL             ....   88
 Basis Dimension        Dim             ....  621

ORBITAL ENERGIES
----------------

  NO   OCC          E(Eh)            E(eV)
   0   2.0000     -77.275922     -2102.7847
   1   2.0000     -10.464024      -284.7406
   2   2.0000     -10.462619      -284.7023
   3   2.0000     -10.461771      -284.6793
   4   2.0000     -10.460243      -284.6377
   5   2.0000     -10.458426      -284.5883
   6   2.0000     -10.444754      -284.2162
   7   2.0000     -10.409686      -283.2619
   8   2.0000      -6.857422      -186.5999
   9   2.0000      -5.010656      -136.3469
  10   2.0000      -5.010564      -136.3444
  11   2.0000      -5.007936      -136.2729
  12   2.0000      -4.008408      -109.0743
  13   2.0000      -2.357940       -64.1628
  14   2.0000      -2.342879       -63.7530
  15   2.0000      -2.335250       -63.5454
  16   2.0000      -1.207632       -32.8613
  17   2.0000      -1.027487       -27.9593
  18   2.0000      -1.022275       -27.8175
  19   2.0000      -0.992995       -27.0208
  20   2.0000      -0.966171       -26.2909
  21   2.0000      -0.942751       -25.6536
  22   2.0000      -0.839892       -22.8546
  23   2.0000      -0.838606       -22.8196
  24   2.0000      -0.826519       -22.4907
  25   2.0000      -0.740407       -20.1475
  26   2.0000      -0.715874       -19.4799
  27   2.0000      -0.704813       -19.1789
  28   2.0000      -0.701136       -19.0789
  29   2.0000      -0.691109       -18.8060
  30   2.0000      -0.683712       -18.6047
  31   2.0000      -0.661993       -18.0137
  32   2.0000      -0.660802       -17.9813
  33   2.0000      -0.658411       -17.9163
  34   2.0000      -0.647185       -17.6108
  35   2.0000      -0.644429       -17.5358
  36   2.0000      -0.635220       -17.2852
  37   2.0000      -0.625488       -17.0204
  38   2.0000      -0.597407       -16.2563
  39   2.0000      -0.560393       -15.2491
  40   2.0000      -0.545243       -14.8368
  41   2.0000      -0.527811       -14.3625
  42   2.0000      -0.512051       -13.9336
  43   2.0000      -0.487889       -13.2761
  44   0.0000      -0.111941        -3.0461
  45   0.0000      -0.090411        -2.4602
  46   0.0000      -0.076515        -2.0821
  47   0.0000      -0.067641        -1.8406
  48   0.0000      -0.057393        -1.5617

MULLIKEN ATOMIC CHARGES
-----------------------
   0 Ir:    0.535653
   1 C :   -0.595516
   2 C :   -0.041785
   3 C :    0.067977
   4 C :    0.310191
   5 C :   -0.212377
   6 C :    0.163995
   7 H :    0.134631
   8 H :    0.190540
   9 H :    0.130838
  10 H :    0.030115
  11 H :   -0.029390
  12 H :    0.032080
  13 H :    0.009457
  14 H :    0.031933
  15 C :   -0.479667
  16 H :    0.045849
  17 H :    0.120909
  18 H :    0.142858
  19 H :    0.175842
  20 P :    0.038800
  21 H :    0.061320
  22 H :    0.069066
  23 H :    0.066680
Sum of atomic charges:    1.0000000

LOEWDIN ATOMIC CHARGES
----------------------
   0 Ir:    1.032139
   1 C :   -0.002637
   2 C :   -0.053269
   3 C :   -0.065407
   4 C :   -0.082319
   5 C :   -0.062707
   6 C :   -0.050760
   7 H :   -0.074428
   8 H :   -0.089088
   9 H :   -0.080512
  10 H :    0.029210
  11 H :    0.024374
  12 H :    0.027025
  13 H :    0.020062
  14 H :    0.020141
  15 C :    0.086364
  16 H :   -0.097392
  17 H :   -0.049173
  18 H :   -0.067198
  19 H :   -0.060738
  20 P :    0.923841
  21 H :   -0.115978
  22 H :   -0.108180
  23 H :   -0.103371

  Mayer bond orders larger than 0.100000
B(  0-Ir,  1-C ) :   0.6094 B(  0-Ir,  2-C ) :   0.4300 B(  0-Ir,  3-C ) :   0.4230
B(  0-Ir,  4-C ) :   0.4567 B(  0-Ir,  5-C ) :   0.4788 B(  0-Ir,  6-C ) :   0.4207
B(  0-Ir, 15-C ) :   0.4381 B(  0-Ir, 16-H ) :   0.5608 B(  0-Ir, 20-P ) :   0.8653
B(  1-C ,  5-C ) :   0.1230 B(  1-C ,  7-H ) :   0.9953 B(  1-C ,  8-H ) :   0.9490
B(  1-C ,  9-H ) :   1.0111 B(  2-C ,  3-C ) :   1.3052 B(  2-C ,  4-C ) :  -0.1955
B(  2-C ,  6-C ) :   1.1040 B(  2-C , 12-H ) :   0.9799 B(  2-C , 15-C ) :   0.1264
B(  3-C ,  4-C ) :   1.0644 B(  3-C ,  5-C ) :  -0.1165 B(  3-C ,  6-C ) :  -0.1785
B(  3-C , 13-H ) :   1.0058 B(  4-C ,  5-C ) :   1.1273 B(  4-C ,  6-C ) :  -0.2134
B(  4-C , 14-H ) :   0.9473 B(  5-C ,  6-C ) :   1.2645 B(  5-C , 10-H ) :   0.9774
B(  6-C , 11-H ) :   0.9668 B( 15-C , 16-H ) :   0.3140 B( 15-C , 17-H ) :   1.0041
B( 15-C , 18-H ) :   0.9731 B( 15-C , 19-H ) :   0.9572 B( 20-P , 21-H ) :   0.9661
B( 20-P , 22-H ) :   0.9638 B( 20-P , 23-H ) :   0.9797

FINAL SINGLE POINT ENERGY      -721.212257406320

DIPOLE MOMENT
-------------
                                X             Y             Z
Electronic contribution:      4.83188       6.84851     -17.54048
Nuclear contribution   :     -4.43915      -6.73459      18.18954
                        -----------------------------------------
Total Dipole Moment    :      0.39273       0.11392       0.64906
                        -----------------------------------------
Magnitude (a.u.)       :      0.76714
Magnitude (Debye)      :      1.94991

Rotational constants in cm-1:     0.054508     0.031967     0.031168
Rotational constants in MHz :  1634.105298   958.356108   934.407674

                             ****ORCA TERMINATED NORMALLY****
TOTAL RUN TIME: 0 days 0 hours 5 minutes 23 seconds 531 msec
