                         Program Version 4.2.0 -  RELEASE  -
|  1> #
|  2> # TMD04_S wB97X-V/Def2-TZVPPD
|  3> #
|  4> ! wb97x-v def2-tzvppd def2/jk grid4 nofinalgrid
|  5>
|  6> *xyz 0 3
|  7> S        0.000000    0.000000    0.000000
|  8> *
|  9>
| 10> %maxcore 5000
| 11>
| 12> %pal
| 13> nprocs = 24
| 14> end
| 15>
| 16>
| 17>                          ****END OF INPUT****

CARTESIAN COORDINATES (ANGSTROEM)
---------------------------------
  S      0.000000    0.000000    0.000000

 Total Charge           Charge          ....    0
 Multiplicity           Mult            ....    3
 Number of Electrons    NEL             ....   16
 Basis Dimension        Dim             ....   51

ORBITAL ENERGIES
----------------
                 SPIN UP ORBITALS
  NO   OCC          E(Eh)            E(eV)
   0   1.0000     -88.923089     -2419.7203
   1   1.0000      -8.096706      -220.3226
   2   1.0000      -6.058111      -164.8496
   3   1.0000      -6.058111      -164.8496
   4   1.0000      -6.039436      -164.3414
   5   1.0000      -0.854623       -23.2555
   6   1.0000      -0.439367       -11.9558
   7   1.0000      -0.439367       -11.9558
   8   1.0000      -0.393290       -10.7020
   9   0.0000       0.076973         2.0945
  10   0.0000       0.076973         2.0945
  11   0.0000       0.083710         2.2779
  12   0.0000       0.094308         2.5663
  13   0.0000       0.193657         5.2697

                 SPIN DOWN ORBITALS
  NO   OCC          E(Eh)            E(eV)
   0   1.0000     -88.912286     -2419.4263
   1   1.0000      -8.087540      -220.0732
   2   1.0000      -6.037804      -164.2970
   3   1.0000      -6.037804      -164.2970
   4   1.0000      -6.032640      -164.1565
   5   1.0000      -0.748964       -20.3804
   6   1.0000      -0.366113        -9.9625
   7   0.0000      -0.087462        -2.3800
   8   0.0000      -0.087462        -2.3800
   9   0.0000       0.085505         2.3267
  10   0.0000       0.089261         2.4289
  11   0.0000       0.089264         2.4290

MULLIKEN ATOMIC CHARGES AND SPIN POPULATIONS
--------------------------------------------
   0 S :    0.000000    2.000000
Sum of atomic charges         :    0.0000000

LOEWDIN ATOMIC CHARGES AND SPIN POPULATIONS
-------------------------------------------
   0 S :    0.000000    2.000000

FINAL SINGLE POINT ENERGY      -398.048836316999

DIPOLE MOMENT
-------------
                                X             Y             Z
Electronic contribution:     -0.00000       0.00000      -0.00000
Nuclear contribution   :      0.00000       0.00000       0.00000
                        -----------------------------------------
Total Dipole Moment    :     -0.00000       0.00000      -0.00000
                        -----------------------------------------
Magnitude (a.u.)       :      0.00000
Magnitude (Debye)      :      0.00000

Rotational constants in cm-1:     0.000000     0.000000     0.000000
Rotational constants in MHz :     0.000000     0.000000     0.000000

                             ****ORCA TERMINATED NORMALLY****
TOTAL RUN TIME: 0 days 0 hours 0 minutes 2 seconds 876 msec
