                         Program Version 4.2.0 -  RELEASE  -
|  1> #
|  2> # TMD08_V wB97X-V/Def2-TZVPPD
|  3> #
|  4> ! wb97x-v def2-tzvppd def2/jk grid4 nofinalgrid
|  5>
|  6> *xyz 0 4
|  7> V        0.000000    0.000000    0.000000
|  8> *
|  9>
| 10> %maxcore 5000
| 11>
| 12> %pal
| 13> nprocs = 24
| 14> end
| 15>
| 16>
| 17>                          ****END OF INPUT****

CARTESIAN COORDINATES (ANGSTROEM)
---------------------------------
  V      0.000000    0.000000    0.000000

 Total Charge           Charge          ....    0
 Multiplicity           Mult            ....    4
 Number of Electrons    NEL             ....   23
 Basis Dimension        Dim             ....   67

ORBITAL ENERGIES
----------------
                 SPIN UP ORBITALS
  NO   OCC          E(Eh)            E(eV)
   0   1.0000    -196.814666     -5355.5993
   1   1.0000     -22.336206      -607.7991
   2   1.0000     -18.831741      -512.4377
   3   1.0000     -18.831653      -512.4353
   4   1.0000     -18.827780      -512.3299
   5   1.0000      -2.809180       -76.4417
   6   1.0000      -1.841073       -50.0981
   7   1.0000      -1.839132       -50.0453
   8   1.0000      -1.838343       -50.0239
   9   1.0000      -0.378608       -10.3024
  10   1.0000      -0.376750       -10.2519
  11   1.0000      -0.375619       -10.2211
  12   1.0000      -0.266499        -7.2518
  13   0.0000      -0.013367        -0.3637
  14   0.0000      -0.001643        -0.0447
  15   0.0000       0.014520         0.3951
  16   0.0000       0.014947         0.4067
  17   0.0000       0.017193         0.4678

                 SPIN DOWN ORBITALS
  NO   OCC          E(Eh)            E(eV)
   0   1.0000    -196.814432     -5355.5930
   1   1.0000     -22.298651      -606.7771
   2   1.0000     -18.801040      -511.6023
   3   1.0000     -18.800484      -511.5872
   4   1.0000     -18.796480      -511.4782
   5   1.0000      -2.697136       -73.3928
   6   1.0000      -1.718773       -46.7702
   7   1.0000      -1.717195       -46.7273
   8   1.0000      -1.710336       -46.5406
   9   1.0000      -0.241918        -6.5829
  10   0.0000       0.016001         0.4354
  11   0.0000       0.019111         0.5200
  12   0.0000       0.019956         0.5430
  13   0.0000       0.040991         1.1154
  14   0.0000       0.042742         1.1631

MULLIKEN ATOMIC CHARGES AND SPIN POPULATIONS
--------------------------------------------
   0 V :   -0.000000    3.000000
Sum of atomic charges         :   -0.0000000

LOEWDIN ATOMIC CHARGES AND SPIN POPULATIONS
-------------------------------------------
   0 V :   -0.000000    3.000000

FINAL SINGLE POINT ENERGY      -943.752053943705

DIPOLE MOMENT
-------------
                                X             Y             Z
Electronic contribution:      0.00000      -0.00000      -0.00000
Nuclear contribution   :      0.00000       0.00000       0.00000
                        -----------------------------------------
Total Dipole Moment    :      0.00000      -0.00000      -0.00000
                        -----------------------------------------
Magnitude (a.u.)       :      0.00000
Magnitude (Debye)      :      0.00000

Rotational constants in cm-1:     0.000000     0.000000     0.000000
Rotational constants in MHz :     0.000000     0.000000     0.000000

                             ****ORCA TERMINATED NORMALLY****
TOTAL RUN TIME: 0 days 0 hours 0 minutes 13 seconds 932 msec
