                         Program Version 4.2.0 -  RELEASE  -
|  1> #
|  2> # TMD05_Cl wB97X-V/Def2-TZVPPD
|  3> #
|  4> ! wb97x-v def2-tzvppd def2/jk grid4 nofinalgrid
|  5>
|  6> *xyz 0 2
|  7> Cl       0.000000    0.000000    0.000000
|  8> *
|  9>
| 10> %maxcore 5000
| 11>
| 12> %pal
| 13> nprocs = 24
| 14> end
| 15>
| 16>
| 17>                          ****END OF INPUT****

CARTESIAN COORDINATES (ANGSTROEM)
---------------------------------
  Cl     0.000000    0.000000    0.000000

 Total Charge           Charge          ....    0
 Multiplicity           Mult            ....    2
 Number of Electrons    NEL             ....   17
 Basis Dimension        Dim             ....   51

ORBITAL ENERGIES
----------------
                 SPIN UP ORBITALS
  NO   OCC          E(Eh)            E(eV)
   0   1.0000    -101.573247     -2763.9486
   1   1.0000      -9.609333      -261.4832
   2   1.0000      -7.375277      -200.6915
   3   1.0000      -7.352890      -200.0823
   4   1.0000      -7.352890      -200.0823
   5   1.0000      -0.977861       -26.6089
   6   1.0000      -0.517924       -14.0934
   7   1.0000      -0.465244       -12.6599
   8   1.0000      -0.465244       -12.6599
   9   0.0000       0.087891         2.3916
  10   0.0000       0.094546         2.5727
  11   0.0000       0.094546         2.5727
  12   0.0000       0.115607         3.1458
  13   0.0000       0.235180         6.3996

                 SPIN DOWN ORBITALS
  NO   OCC          E(Eh)            E(eV)
   0   1.0000    -101.566613     -2763.7680
   1   1.0000      -9.603973      -261.3374
   2   1.0000      -7.355122      -200.1430
   3   1.0000      -7.348862      -199.9727
   4   1.0000      -7.348862      -199.9727
   5   1.0000      -0.920051       -25.0358
   6   1.0000      -0.449621       -12.2348
   7   1.0000      -0.449621       -12.2348
   8   0.0000      -0.150174        -4.0864
   9   0.0000       0.095312         2.5936
  10   0.0000       0.095312         2.5936
  11   0.0000       0.096276         2.6198
  12   0.0000       0.119795         3.2598

MULLIKEN ATOMIC CHARGES AND SPIN POPULATIONS
--------------------------------------------
   0 Cl:   -0.000000    1.000000
Sum of atomic charges         :   -0.0000000

LOEWDIN ATOMIC CHARGES AND SPIN POPULATIONS
-------------------------------------------
   0 Cl:   -0.000000    1.000000

FINAL SINGLE POINT ENERGY      -460.080109513254

DIPOLE MOMENT
-------------
                                X             Y             Z
Electronic contribution:     -0.00000       0.00000       0.00000
Nuclear contribution   :      0.00000       0.00000       0.00000
                        -----------------------------------------
Total Dipole Moment    :     -0.00000       0.00000       0.00000
                        -----------------------------------------
Magnitude (a.u.)       :      0.00000
Magnitude (Debye)      :      0.00000

Rotational constants in cm-1:     0.000000     0.000000     0.000000
Rotational constants in MHz :     0.000000     0.000000     0.000000

                             ****ORCA TERMINATED NORMALLY****
TOTAL RUN TIME: 0 days 0 hours 0 minutes 2 seconds 879 msec
