                         Program Version 4.2.0 -  RELEASE  -
|  1> #
|  2> # TMD09_Cr wB97X-V/Def2-TZVPPD
|  3> #
|  4> ! wb97x-v def2-tzvppd def2/jk grid4 nofinalgrid
|  5>
|  6> *xyz 0 7
|  7> Cr       0.000000    0.000000    0.000000
|  8> *
|  9>
| 10> %maxcore 5000
| 11>
| 12> %pal
| 13> nprocs = 24
| 14> end
| 15>
| 16>
| 17>                          ****END OF INPUT****

CARTESIAN COORDINATES (ANGSTROEM)
---------------------------------
  Cr     0.000000    0.000000    0.000000

 Total Charge           Charge          ....    0
 Multiplicity           Mult            ....    7
 Number of Electrons    NEL             ....   24
 Basis Dimension        Dim             ....   67

ORBITAL ENERGIES
----------------
                 SPIN UP ORBITALS
  NO   OCC          E(Eh)            E(eV)
   0   1.0000    -215.529289     -5864.8501
   1   1.0000     -24.655821      -670.9190
   2   1.0000     -20.937509      -569.7386
   3   1.0000     -20.937509      -569.7386
   4   1.0000     -20.937509      -569.7386
   5   1.0000      -2.955591       -80.4257
   6   1.0000      -1.912799       -52.0499
   7   1.0000      -1.912799       -52.0499
   8   1.0000      -1.912798       -52.0499
   9   1.0000      -0.284732        -7.7480
  10   1.0000      -0.284731        -7.7479
  11   1.0000      -0.284730        -7.7479
  12   1.0000      -0.284729        -7.7479
  13   1.0000      -0.284728        -7.7478
  14   1.0000      -0.238835        -6.4990
  15   0.0000       0.022198         0.6040
  16   0.0000       0.022198         0.6040
  17   0.0000       0.022198         0.6040
  18   0.0000       0.124513         3.3882
  19   0.0000       0.124513         3.3882

                 SPIN DOWN ORBITALS
  NO   OCC          E(Eh)            E(eV)
   0   1.0000    -215.527854     -5864.8111
   1   1.0000     -24.593756      -669.2301
   2   1.0000     -20.886884      -568.3610
   3   1.0000     -20.886884      -568.3610
   4   1.0000     -20.886884      -568.3610
   5   1.0000      -2.775677       -75.5300
   6   1.0000      -1.714879       -46.6642
   7   1.0000      -1.714879       -46.6642
   8   1.0000      -1.714879       -46.6642
   9   0.0000       0.055379         1.5069
  10   0.0000       0.074127         2.0171
  11   0.0000       0.074127         2.0171
  12   0.0000       0.074128         2.0171
  13   0.0000       0.172423         4.6919

MULLIKEN ATOMIC CHARGES AND SPIN POPULATIONS
--------------------------------------------
   0 Cr:   -0.000000    6.000000
Sum of atomic charges         :   -0.0000000

LOEWDIN ATOMIC CHARGES AND SPIN POPULATIONS
-------------------------------------------
   0 Cr:   -0.000000    6.000000

FINAL SINGLE POINT ENERGY     -1044.274884296795

DIPOLE MOMENT
-------------
                                X             Y             Z
Electronic contribution:      0.00000       0.00000       0.00000
Nuclear contribution   :      0.00000       0.00000       0.00000
                        -----------------------------------------
Total Dipole Moment    :      0.00000       0.00000       0.00000
                        -----------------------------------------
Magnitude (a.u.)       :      0.00000
Magnitude (Debye)      :      0.00000

Rotational constants in cm-1:     0.000000     0.000000     0.000000
Rotational constants in MHz :     0.000000     0.000000     0.000000

                             ****ORCA TERMINATED NORMALLY****
TOTAL RUN TIME: 0 days 0 hours 0 minutes 4 seconds 897 msec
