                         Program Version 4.2.0 -  RELEASE  -
|  1> #
|  2> # TMD06_Br wB97X-V/Def2-TZVPPD
|  3> #
|  4> ! wb97x-v def2-tzvppd def2/jk grid4 nofinalgrid
|  5>
|  6> *xyz 0 2
|  7> Br       0.000000    0.000000    0.000000
|  8> *
|  9>
| 10> %maxcore 5000
| 11>
| 12> %pal
| 13> nprocs = 24
| 14> end
| 15>
| 16>
| 17>                          ****END OF INPUT****

CARTESIAN COORDINATES (ANGSTROEM)
---------------------------------
  Br     0.000000    0.000000    0.000000

 Total Charge           Charge          ....    0
 Multiplicity           Mult            ....    2
 Number of Electrons    NEL             ....   35
 Basis Dimension        Dim             ....   57

ORBITAL ENERGIES
----------------
                 SPIN UP ORBITALS
  NO   OCC          E(Eh)            E(eV)
   0   1.0000    -482.693465    -13134.7569
   1   1.0000     -62.567079     -1702.5368
   2   1.0000     -56.376336     -1534.0781
   3   1.0000     -56.368616     -1533.8680
   4   1.0000     -56.368616     -1533.8680
   5   1.0000      -8.836247      -240.4465
   6   1.0000      -6.673484      -181.5947
   7   1.0000      -6.651937      -181.0084
   8   1.0000      -6.651937      -181.0084
   9   1.0000      -2.792519       -75.9883
  10   1.0000      -2.787216       -75.8440
  11   1.0000      -2.787216       -75.8440
  12   1.0000      -2.771342       -75.4121
  13   1.0000      -2.771342       -75.4121
  14   1.0000      -0.923991       -25.1431
  15   1.0000      -0.476142       -12.9565
  16   1.0000      -0.429381       -11.6840
  17   1.0000      -0.429381       -11.6840
  18   0.0000       0.071277         1.9395
  19   0.0000       0.077196         2.1006
  20   0.0000       0.077196         2.1006
  21   0.0000       0.098931         2.6921
  22   0.0000       0.184797         5.0286

                 SPIN DOWN ORBITALS
  NO   OCC          E(Eh)            E(eV)
   0   1.0000    -482.691084    -13134.6921
   1   1.0000     -62.565838     -1702.5030
   2   1.0000     -56.370933     -1533.9311
   3   1.0000     -56.367543     -1533.8388
   4   1.0000     -56.367543     -1533.8388
   5   1.0000      -8.832958      -240.3570
   6   1.0000      -6.664151      -181.3408
   7   1.0000      -6.650465      -180.9684
   8   1.0000      -6.650465      -180.9684
   9   1.0000      -2.785333       -75.7928
  10   1.0000      -2.781748       -75.6952
  11   1.0000      -2.781748       -75.6952
  12   1.0000      -2.770481       -75.3886
  13   1.0000      -2.770481       -75.3886
  14   1.0000      -0.873681       -23.7741
  15   1.0000      -0.416326       -11.3288
  16   1.0000      -0.416326       -11.3288
  17   0.0000      -0.140262        -3.8167
  18   0.0000       0.077852         2.1185
  19   0.0000       0.077852         2.1185
  20   0.0000       0.078161         2.1269
  21   0.0000       0.102714         2.7950

MULLIKEN ATOMIC CHARGES AND SPIN POPULATIONS
--------------------------------------------
   0 Br:   -0.000000    1.000000
Sum of atomic charges         :   -0.0000000

LOEWDIN ATOMIC CHARGES AND SPIN POPULATIONS
-------------------------------------------
   0 Br:   -0.000000    1.000000

FINAL SINGLE POINT ENERGY     -2573.874418841518

DIPOLE MOMENT
-------------
                                X             Y             Z
Electronic contribution:     -0.00000       0.00000       0.00000
Nuclear contribution   :      0.00000       0.00000       0.00000
                        -----------------------------------------
Total Dipole Moment    :     -0.00000       0.00000       0.00000
                        -----------------------------------------
Magnitude (a.u.)       :      0.00000
Magnitude (Debye)      :      0.00000

Rotational constants in cm-1:     0.000000     0.000000     0.000000
Rotational constants in MHz :     0.000000     0.000000     0.000000

                             ****ORCA TERMINATED NORMALLY****
TOTAL RUN TIME: 0 days 0 hours 0 minutes 3 seconds 165 msec
