                         Program Version 4.2.0 -  RELEASE  -
|  1> #
|  2> # TMD07_Ti wB97X-V/Def2-TZVPPD
|  3> #
|  4> ! wb97x-v def2-tzvppd def2/jk grid4 nofinalgrid
|  5>
|  6> *xyz 0 3
|  7> Ti       0.000000    0.000000    0.000000
|  8> *
|  9>
| 10> %maxcore 5000
| 11>
| 12> %pal
| 13> nprocs = 24
| 14> end
| 15>
| 16>
| 17>                          ****END OF INPUT****

CARTESIAN COORDINATES (ANGSTROEM)
---------------------------------
  Ti     0.000000    0.000000    0.000000

 Total Charge           Charge          ....    0
 Multiplicity           Mult            ....    3
 Number of Electrons    NEL             ....   22
 Basis Dimension        Dim             ....   67

ORBITAL ENERGIES
----------------
                 SPIN UP ORBITALS
  NO   OCC          E(Eh)            E(eV)
   0   1.0000    -178.829952     -4866.2104
   1   1.0000     -19.987041      -543.8750
   2   1.0000     -16.697026      -454.3492
   3   1.0000     -16.697025      -454.3492
   4   1.0000     -16.685143      -454.0258
   5   1.0000      -2.541782       -69.1654
   6   1.0000      -1.651112       -44.9290
   7   1.0000      -1.651110       -44.9290
   8   1.0000      -1.646026       -44.7907
   9   1.0000      -0.344430        -9.3724
  10   1.0000      -0.344430        -9.3724
  11   1.0000      -0.252638        -6.8746
  12   0.0000      -0.004958        -0.1349
  13   0.0000      -0.004958        -0.1349
  14   0.0000       0.009407         0.2560
  15   0.0000       0.009410         0.2561
  16   0.0000       0.012132         0.3301

                 SPIN DOWN ORBITALS
  NO   OCC          E(Eh)            E(eV)
   0   1.0000    -178.829798     -4866.2062
   1   1.0000     -19.966513      -543.3164
   2   1.0000     -16.682982      -453.9670
   3   1.0000     -16.682982      -453.9670
   4   1.0000     -16.661817      -453.3911
   5   1.0000      -2.475649       -67.3658
   6   1.0000      -1.591369       -43.3033
   7   1.0000      -1.591368       -43.3033
   8   1.0000      -1.542585       -41.9759
   9   1.0000      -0.239558        -6.5187
  10   0.0000       0.011932         0.3247
  11   0.0000       0.011934         0.3247
  12   0.0000       0.015923         0.4333
  13   0.0000       0.022478         0.6116
  14   0.0000       0.022478         0.6116

MULLIKEN ATOMIC CHARGES AND SPIN POPULATIONS
--------------------------------------------
   0 Ti:   -0.000000    2.000000
Sum of atomic charges         :   -0.0000000

LOEWDIN ATOMIC CHARGES AND SPIN POPULATIONS
-------------------------------------------
   0 Ti:   -0.000000    2.000000

FINAL SINGLE POINT ENERGY      -849.212852074761

DIPOLE MOMENT
-------------
                                X             Y             Z
Electronic contribution:     -0.00000       0.00000      -0.00000
Nuclear contribution   :      0.00000       0.00000       0.00000
                        -----------------------------------------
Total Dipole Moment    :     -0.00000       0.00000      -0.00000
                        -----------------------------------------
Magnitude (a.u.)       :      0.00000
Magnitude (Debye)      :      0.00000

Rotational constants in cm-1:     0.000000     0.000000     0.000000
Rotational constants in MHz :     0.000000     0.000000     0.000000

                             ****ORCA TERMINATED NORMALLY****
TOTAL RUN TIME: 0 days 0 hours 0 minutes 15 seconds 81 msec
