                         Program Version 4.2.0 -  RELEASE  -
|  1> #
|  2> # TMD03_F wB97X-V/Def2-TZVPPD
|  3> #
|  4> ! wb97x-v def2-tzvppd def2/jk grid4 nofinalgrid
|  5>
|  6> *xyz 0 2
|  7> F        0.000000    0.000000    0.000000
|  8> *
|  9>
| 10> %maxcore 5000
| 11>
| 12> %pal
| 13> nprocs = 24
| 14> end
| 15>
| 16>
| 17>                          ****END OF INPUT****

CARTESIAN COORDINATES (ANGSTROEM)
---------------------------------
  F      0.000000    0.000000    0.000000

 Total Charge           Charge          ....    0
 Multiplicity           Mult            ....    2
 Number of Electrons    NEL             ....    9
 Basis Dimension        Dim             ....   40

ORBITAL ENERGIES
----------------
                 SPIN UP ORBITALS
  NO   OCC          E(Eh)            E(eV)
   0   1.0000     -24.865547      -676.6259
   1   1.0000      -1.362625       -37.0789
   2   1.0000      -0.678844       -18.4723
   3   1.0000      -0.594864       -16.1871
   4   1.0000      -0.594864       -16.1871
   5   0.0000       0.142424         3.8756
   6   0.0000       0.149911         4.0793
   7   0.0000       0.149911         4.0793
   8   0.0000       0.152357         4.1458
   9   0.0000       0.549501        14.9527

                 SPIN DOWN ORBITALS
  NO   OCC          E(Eh)            E(eV)
   0   1.0000     -24.839805      -675.9255
   1   1.0000      -1.273311       -34.6485
   2   1.0000      -0.562387       -15.3033
   3   1.0000      -0.562387       -15.3033
   4   0.0000      -0.164241        -4.4692
   5   0.0000       0.151061         4.1106
   6   0.0000       0.151061         4.1106
   7   0.0000       0.155235         4.2242
   8   0.0000       0.157595         4.2884

MULLIKEN ATOMIC CHARGES AND SPIN POPULATIONS
--------------------------------------------
   0 F :   -0.000000    1.000000
Sum of atomic charges         :   -0.0000000

LOEWDIN ATOMIC CHARGES AND SPIN POPULATIONS
-------------------------------------------
   0 F :   -0.000000    1.000000

FINAL SINGLE POINT ENERGY       -99.735212601175

DIPOLE MOMENT
-------------
                                X             Y             Z
Electronic contribution:     -0.00000      -0.00000       0.00000
Nuclear contribution   :      0.00000       0.00000       0.00000
                        -----------------------------------------
Total Dipole Moment    :     -0.00000      -0.00000       0.00000
                        -----------------------------------------
Magnitude (a.u.)       :      0.00000
Magnitude (Debye)      :      0.00000

Rotational constants in cm-1:     0.000000     0.000000     0.000000
Rotational constants in MHz :     0.000000     0.000000     0.000000

                             ****ORCA TERMINATED NORMALLY****
TOTAL RUN TIME: 0 days 0 hours 0 minutes 2 seconds 771 msec
