                         Program Version 4.2.0 -  RELEASE  -
|  1> #
|  2> # TMD02_O wB97X-V/Def2-TZVPPD
|  3> #
|  4> ! wb97x-v def2-tzvppd def2/jk grid4 nofinalgrid
|  5>
|  6> *xyz 0 3
|  7> O        0.000000    0.000000    0.000000
|  8> *
|  9>
| 10> %maxcore 5000
| 11>
| 12> %pal
| 13> nprocs = 24
| 14> end
| 15>
| 16>
| 17>                          ****END OF INPUT****

CARTESIAN COORDINATES (ANGSTROEM)
---------------------------------
  O      0.000000    0.000000    0.000000

 Total Charge           Charge          ....    0
 Multiplicity           Mult            ....    3
 Number of Electrons    NEL             ....    8
 Basis Dimension        Dim             ....   40

ORBITAL ENERGIES
----------------
                 SPIN UP ORBITALS
  NO   OCC          E(Eh)            E(eV)
   0   1.0000     -19.361482      -526.8527
   1   1.0000      -1.149486       -31.2791
   2   1.0000      -0.575145       -15.6505
   3   1.0000      -0.575145       -15.6505
   4   1.0000      -0.503586       -13.7033
   5   0.0000       0.117786         3.2051
   6   0.0000       0.123331         3.3560
   7   0.0000       0.123331         3.3560
   8   0.0000       0.131083         3.5669
   9   0.0000       0.433118        11.7857

                 SPIN DOWN ORBITALS
  NO   OCC          E(Eh)            E(eV)
   0   1.0000     -19.319227      -525.7029
   1   1.0000      -0.989875       -26.9359
   2   1.0000      -0.447848       -12.1866
   3   0.0000      -0.079282        -2.1574
   4   0.0000      -0.079280        -2.1573
   5   0.0000       0.128857         3.5064
   6   0.0000       0.133733         3.6390
   7   0.0000       0.141539         3.8515

MULLIKEN ATOMIC CHARGES AND SPIN POPULATIONS
--------------------------------------------
   0 O :    0.000000    2.000000
Sum of atomic charges         :    0.0000000

LOEWDIN ATOMIC CHARGES AND SPIN POPULATIONS
-------------------------------------------
   0 O :    0.000000    2.000000

FINAL SINGLE POINT ENERGY       -75.069214602800

DIPOLE MOMENT
-------------
                                X             Y             Z
Electronic contribution:      0.00000      -0.00000      -0.00000
Nuclear contribution   :      0.00000       0.00000       0.00000
                        -----------------------------------------
Total Dipole Moment    :      0.00000      -0.00000      -0.00000
                        -----------------------------------------
Magnitude (a.u.)       :      0.00000
Magnitude (Debye)      :      0.00000

Rotational constants in cm-1:     0.000000     0.000000     0.000000
Rotational constants in MHz :     0.000000     0.000000     0.000000

                             ****ORCA TERMINATED NORMALLY****
TOTAL RUN TIME: 0 days 0 hours 0 minutes 2 seconds 781 msec
