                         Program Version 4.2.0 -  RELEASE  -
|  1> #
|  2> # TMD11_Fe wB97X-V/Def2-TZVPPD
|  3> #
|  4> ! wb97x-v def2-tzvppd def2/jk grid4 nofinalgrid
|  5>
|  6> *xyz 0 5
|  7> Fe       0.000000    0.000000    0.000000
|  8> *
|  9>
| 10> %maxcore 5000
| 11>
| 12> %pal
| 13> nprocs = 24
| 14> end
| 15>
| 16>
| 17>                          ****END OF INPUT****

CARTESIAN COORDINATES (ANGSTROEM)
---------------------------------
  Fe     0.000000    0.000000    0.000000

 Total Charge           Charge          ....    0
 Multiplicity           Mult            ....    5
 Number of Electrons    NEL             ....   26
 Basis Dimension        Dim             ....   67

ORBITAL ENERGIES
----------------
                 SPIN UP ORBITALS
  NO   OCC          E(Eh)            E(eV)
   0   1.0000    -256.026696     -6966.8406
   1   1.0000     -30.167493      -820.8992
   2   1.0000     -26.034761      -708.4419
   3   1.0000     -26.006612      -707.6759
   4   1.0000     -26.004159      -707.6091
   5   1.0000      -3.701859      -100.7327
   6   1.0000      -2.515280       -68.4443
   7   1.0000      -2.460324       -66.9488
   8   1.0000      -2.455234       -66.8103
   9   1.0000      -0.512228       -13.9384
  10   1.0000      -0.509750       -13.8710
  11   1.0000      -0.507574       -13.8118
  12   1.0000      -0.486312       -13.2332
  13   1.0000      -0.452750       -12.3200
  14   1.0000      -0.291731        -7.9384
  15   0.0000       0.022268         0.6059
  16   0.0000       0.022377         0.6089
  17   0.0000       0.022943         0.6243
  18   0.0000       0.152371         4.1462
  19   0.0000       0.152886         4.1602

                 SPIN DOWN ORBITALS
  NO   OCC          E(Eh)            E(eV)
   0   1.0000    -256.025634     -6966.8117
   1   1.0000     -30.095223      -818.9327
   2   1.0000     -25.967245      -706.6047
   3   1.0000     -25.952110      -706.1928
   4   1.0000     -25.950946      -706.1611
   5   1.0000      -3.526868       -95.9709
   6   1.0000      -2.290472       -62.3269
   7   1.0000      -2.286275       -62.2127
   8   1.0000      -2.285017       -62.1785
   9   1.0000      -0.368015       -10.0142
  10   1.0000      -0.274841        -7.4788
  11   0.0000      -0.006785        -0.1846
  12   0.0000       0.015748         0.4285
  13   0.0000       0.018260         0.4969
  14   0.0000       0.025746         0.7006
  15   0.0000       0.029542         0.8039

MULLIKEN ATOMIC CHARGES AND SPIN POPULATIONS
--------------------------------------------
   0 Fe:   -0.000000    4.000000
Sum of atomic charges         :   -0.0000000

LOEWDIN ATOMIC CHARGES AND SPIN POPULATIONS
-------------------------------------------
   0 Fe:   -0.000000    4.000000

FINAL SINGLE POINT ENERGY     -1263.502365326568

DIPOLE MOMENT
-------------
                                X             Y             Z
Electronic contribution:      0.00000      -0.00000      -0.00000
Nuclear contribution   :      0.00000       0.00000       0.00000
                        -----------------------------------------
Total Dipole Moment    :      0.00000      -0.00000      -0.00000
                        -----------------------------------------
Magnitude (a.u.)       :      0.00000
Magnitude (Debye)      :      0.00000

Rotational constants in cm-1:     0.000000     0.000000     0.000000
Rotational constants in MHz :     0.000000     0.000000     0.000000

                             ****ORCA TERMINATED NORMALLY****
TOTAL RUN TIME: 0 days 0 hours 0 minutes 13 seconds 946 msec
