                         Program Version 4.2.0 -  RELEASE  -
|  1> #
|  2> # TMD18_MnBr wB97X-V/Def2-TZVPPD
|  3> #
|  4> ! wb97x-v def2-tzvppd def2/jk grid4 nofinalgrid
|  5>
|  6> *xyz 0 7
|  7> Mn       0.000000    0.000000   -1.400000
|  8> Br       0.000000    0.000000    1.000000
|  9> *
| 10>
| 11> %maxcore 5000
| 12>
| 13> %pal
| 14> nprocs = 24
| 15> end
| 16>
| 17>
| 18>                          ****END OF INPUT****

CARTESIAN COORDINATES (ANGSTROEM)
---------------------------------
  Mn     0.000000    0.000000   -1.400000
  Br     0.000000    0.000000    1.000000

 Total Charge           Charge          ....    0
 Multiplicity           Mult            ....    7
 Number of Electrons    NEL             ....   60
 Basis Dimension        Dim             ....  124

ORBITAL ENERGIES
----------------
                 SPIN UP ORBITALS
  NO   OCC          E(Eh)            E(eV)
   0   1.0000    -482.617765    -13132.6970
   1   1.0000    -235.463841     -6407.2969
   2   1.0000     -62.492741     -1700.5139
   3   1.0000     -56.296775     -1531.9131
   4   1.0000     -56.295955     -1531.8908
   5   1.0000     -56.295955     -1531.8908
   6   1.0000     -27.486598      -747.9483
   7   1.0000     -23.550760      -640.8488
   8   1.0000     -23.550760      -640.8488
   9   1.0000     -23.548536      -640.7883
  10   1.0000      -8.761806      -238.4209
  11   1.0000      -6.586208      -179.2198
  12   1.0000      -6.583628      -179.1496
  13   1.0000      -6.583628      -179.1496
  14   1.0000      -3.464282       -94.2679
  15   1.0000      -2.709004       -73.7158
  16   1.0000      -2.708149       -73.6925
  17   1.0000      -2.708149       -73.6925
  18   1.0000      -2.706115       -73.6371
  19   1.0000      -2.706086       -73.6363
  20   1.0000      -2.332033       -63.4578
  21   1.0000      -2.332033       -63.4578
  22   1.0000      -2.325678       -63.2849
  23   1.0000      -0.862809       -23.4782
  24   1.0000      -0.525342       -14.2953
  25   1.0000      -0.518910       -14.1203
  26   1.0000      -0.518909       -14.1202
  27   1.0000      -0.518803       -14.1173
  28   1.0000      -0.518803       -14.1173
  29   1.0000      -0.420365       -11.4387
  30   1.0000      -0.378673       -10.3042
  31   1.0000      -0.378673       -10.3042
  32   1.0000      -0.286122        -7.7858
  33   0.0000       0.010556         0.2872
  34   0.0000       0.010556         0.2872
  35   0.0000       0.047756         1.2995
  36   0.0000       0.079855         2.1730
  37   0.0000       0.092172         2.5081

                 SPIN DOWN ORBITALS
  NO   OCC          E(Eh)            E(eV)
   0   1.0000    -482.617387    -13132.6868
   1   1.0000    -235.461659     -6407.2375
   2   1.0000     -62.492524     -1700.5080
   3   1.0000     -56.296250     -1531.8988
   4   1.0000     -56.295636     -1531.8821
   5   1.0000     -56.295636     -1531.8821
   6   1.0000     -27.405082      -745.7302
   7   1.0000     -23.484246      -639.0388
   8   1.0000     -23.484246      -639.0388
   9   1.0000     -23.482418      -638.9891
  10   1.0000      -8.761262      -238.4061
  11   1.0000      -6.585365      -179.1969
  12   1.0000      -6.583091      -179.1350
  13   1.0000      -6.583091      -179.1350
  14   1.0000      -3.254396       -88.5566
  15   1.0000      -2.708268       -73.6957
  16   1.0000      -2.707471       -73.6740
  17   1.0000      -2.707471       -73.6740
  18   1.0000      -2.705601       -73.6232
  19   1.0000      -2.705571       -73.6223
  20   1.0000      -2.104060       -57.2544
  21   1.0000      -2.104060       -57.2544
  22   1.0000      -2.097965       -57.0885
  23   1.0000      -0.855757       -23.2863
  24   1.0000      -0.425819       -11.5871
  25   1.0000      -0.383353       -10.4316
  26   1.0000      -0.383353       -10.4316
  27   0.0000      -0.025359        -0.6900
  28   0.0000       0.009049         0.2462
  29   0.0000       0.009050         0.2463
  30   0.0000       0.017527         0.4769
  31   0.0000       0.017527         0.4769

MULLIKEN ATOMIC CHARGES AND SPIN POPULATIONS
--------------------------------------------
   0 Mn:    0.382941    5.941541
   1 Br:   -0.382941    0.058459
Sum of atomic charges         :    0.0000000

LOEWDIN ATOMIC CHARGES AND SPIN POPULATIONS
-------------------------------------------
   0 Mn:    0.233096    5.736179
   1 Br:   -0.233096    0.263821

  Mayer bond orders larger than 0.100000
B(  0-Mn,  1-Br) :   0.7546

FINAL SINGLE POINT ENERGY     -3724.815720791201

DIPOLE MOMENT
-------------
                                X             Y             Z
Electronic contribution:     -0.00000      -0.00000       1.33253
Nuclear contribution   :      0.00000       0.00000      -2.50917
                        -----------------------------------------
Total Dipole Moment    :     -0.00000      -0.00000      -1.17664
                        -----------------------------------------
Magnitude (a.u.)       :      1.17664
Magnitude (Debye)      :      2.99078

Rotational constants in cm-1:     0.000000     0.089900     0.089900
Rotational constants in MHz :     0.000000  2695.122005  2695.122005

                             ****ORCA TERMINATED NORMALLY****
TOTAL RUN TIME: 0 days 0 hours 0 minutes 7 seconds 47 msec
