                         Program Version 4.2.0 -  RELEASE  -
|  1> #
|  2> # TMD15_TiBr wB97X-V/Def2-TZVPPD
|  3> #
|  4> ! wb97x-v def2-tzvppd def2/jk grid4 nofinalgrid
|  5>
|  6> *xyz 0 4
|  7> Ti       0.000000    0.000000   -1.485965
|  8> Br       0.000000    0.000000    0.934035
|  9> *
| 10>
| 11> %maxcore 5000
| 12>
| 13> %pal
| 14> nprocs = 24
| 15> end
| 16>
| 17>
| 18>                          ****END OF INPUT****

CARTESIAN COORDINATES (ANGSTROEM)
---------------------------------
  Ti     0.000000    0.000000   -1.485965
  Br     0.000000    0.000000    0.934035

 Total Charge           Charge          ....    0
 Multiplicity           Mult            ....    4
 Number of Electrons    NEL             ....   57
 Basis Dimension        Dim             ....  124

ORBITAL ENERGIES
----------------
                 SPIN UP ORBITALS
  NO   OCC          E(Eh)            E(eV)
   0   1.0000    -482.601336    -13132.2500
   1   1.0000    -178.768050     -4864.5260
   2   1.0000     -62.476548     -1700.0733
   3   1.0000     -56.280181     -1531.4616
   4   1.0000     -56.279767     -1531.4503
   5   1.0000     -56.279767     -1531.4503
   6   1.0000     -19.911024      -541.8065
   7   1.0000     -16.626560      -452.4317
   8   1.0000     -16.614439      -452.1019
   9   1.0000     -16.614439      -452.1019
  10   1.0000      -8.745443      -237.9756
  11   1.0000      -6.569096      -178.7542
  12   1.0000      -6.567560      -178.7124
  13   1.0000      -6.567560      -178.7124
  14   1.0000      -2.692163       -73.2575
  15   1.0000      -2.691515       -73.2399
  16   1.0000      -2.691515       -73.2399
  17   1.0000      -2.690236       -73.2051
  18   1.0000      -2.690207       -73.2043
  19   1.0000      -2.477498       -67.4162
  20   1.0000      -1.599213       -43.5168
  21   1.0000      -1.587125       -43.1879
  22   1.0000      -1.587125       -43.1879
  23   1.0000      -0.840167       -22.8621
  24   1.0000      -0.403012       -10.9665
  25   1.0000      -0.369638       -10.0584
  26   1.0000      -0.369638       -10.0584
  27   1.0000      -0.274925        -7.4811
  28   1.0000      -0.274924        -7.4811
  29   1.0000      -0.262949        -7.1552
  30   0.0000      -0.016009        -0.4356
  31   0.0000       0.008187         0.2228
  32   0.0000       0.008187         0.2228
  33   0.0000       0.050021         1.3611
  34   0.0000       0.050021         1.3611

                 SPIN DOWN ORBITALS
  NO   OCC          E(Eh)            E(eV)
   0   1.0000    -482.601482    -13132.2539
   1   1.0000    -178.767377     -4864.5076
   2   1.0000     -62.476615     -1700.0751
   3   1.0000     -56.280381     -1531.4670
   4   1.0000     -56.279888     -1531.4536
   5   1.0000     -56.279888     -1531.4536
   6   1.0000     -19.888559      -541.1952
   7   1.0000     -16.616837      -452.1671
   8   1.0000     -16.591355      -451.4737
   9   1.0000     -16.591355      -451.4737
  10   1.0000      -8.745633      -237.9808
  11   1.0000      -6.569419      -178.7630
  12   1.0000      -6.567759      -178.7178
  13   1.0000      -6.567759      -178.7178
  14   1.0000      -2.692413       -73.2643
  15   1.0000      -2.691773       -73.2469
  16   1.0000      -2.691773       -73.2469
  17   1.0000      -2.690419       -73.2100
  18   1.0000      -2.690390       -73.2092
  19   1.0000      -2.402087       -65.3641
  20   1.0000      -1.551748       -42.2252
  21   1.0000      -1.483894       -40.3788
  22   1.0000      -1.483894       -40.3788
  23   1.0000      -0.841668       -22.9029
  24   1.0000      -0.400819       -10.9069
  25   1.0000      -0.370128       -10.0717
  26   1.0000      -0.370128       -10.0717
  27   0.0000      -0.003669        -0.0998
  28   0.0000       0.043437         1.1820
  29   0.0000       0.046642         1.2692
  30   0.0000       0.046642         1.2692
  31   0.0000       0.070377         1.9151

MULLIKEN ATOMIC CHARGES AND SPIN POPULATIONS
--------------------------------------------
   0 Ti:    0.336935    3.023783
   1 Br:   -0.336935   -0.023783
Sum of atomic charges         :   -0.0000000

LOEWDIN ATOMIC CHARGES AND SPIN POPULATIONS
-------------------------------------------
   0 Ti:    0.057471    2.911159
   1 Br:   -0.057471    0.088841

  Mayer bond orders larger than 0.100000
B(  0-Ti,  1-Br) :   1.1271

FINAL SINGLE POINT ENERGY     -3423.232437342544

DIPOLE MOMENT
-------------
                                X             Y             Z
Electronic contribution:      0.00000      -0.00000       0.67274
Nuclear contribution   :      0.00000       0.00000      -2.90920
                        -----------------------------------------
Total Dipole Moment    :      0.00000      -0.00000      -2.23646
                        -----------------------------------------
Magnitude (a.u.)       :      2.23646
Magnitude (Debye)      :      5.68462

Rotational constants in cm-1:     0.000000     0.096120     0.096120
Rotational constants in MHz :     0.000000  2881.611529  2881.611529

                             ****ORCA TERMINATED NORMALLY****
TOTAL RUN TIME: 0 days 0 hours 0 minutes 9 seconds 140 msec
