                         Program Version 4.2.0 -  RELEASE  -
|  1> #
|  2> # TMD12_Co wB97X-V/Def2-TZVPPD
|  3> #
|  4> ! wb97x-v def2-tzvppd def2/jk grid4 nofinalgrid
|  5>
|  6> *xyz 0 4
|  7> Co       0.000000    0.000000    0.000000
|  8> *
|  9>
| 10> %maxcore 5000
| 11>
| 12> %pal
| 13> nprocs = 24
| 14> end
| 15>
| 16>
| 17>                          ****END OF INPUT****

CARTESIAN COORDINATES (ANGSTROEM)
---------------------------------
  Co     0.000000    0.000000    0.000000

 Total Charge           Charge          ....    0
 Multiplicity           Mult            ....    4
 Number of Electrons    NEL             ....   27
 Basis Dimension        Dim             ....   67

ORBITAL ENERGIES
----------------
                 SPIN UP ORBITALS
  NO   OCC          E(Eh)            E(eV)
   0   1.0000    -277.337383     -7546.7339
   1   1.0000     -32.816361      -892.9786
   2   1.0000     -28.451331      -774.2001
   3   1.0000     -28.451299      -774.1992
   4   1.0000     -28.451263      -774.1982
   5   1.0000      -3.799257      -103.3830
   6   1.0000      -2.486275       -67.6550
   7   1.0000      -2.486219       -67.6535
   8   1.0000      -2.486173       -67.6522
   9   1.0000      -0.369828       -10.0635
  10   1.0000      -0.369827       -10.0635
  11   1.0000      -0.335909        -9.1405
  12   1.0000      -0.335896        -9.1402
  13   1.0000      -0.335872        -9.1395
  14   1.0000      -0.255920        -6.9639
  15   0.0000       0.035427         0.9640
  16   0.0000       0.035510         0.9663
  17   0.0000       0.035515         0.9664
  18   0.0000       0.184726         5.0267
  19   0.0000       0.184825         5.0293

                 SPIN DOWN ORBITALS
  NO   OCC          E(Eh)            E(eV)
   0   1.0000    -277.335797     -7546.6907
   1   1.0000     -32.777140      -891.9113
   2   1.0000     -28.419956      -773.3463
   3   1.0000     -28.419935      -773.3458
   4   1.0000     -28.419887      -773.3444
   5   1.0000      -3.706758      -100.8660
   6   1.0000      -2.386777       -64.9475
   7   1.0000      -2.386716       -64.9459
   8   1.0000      -2.386711       -64.9457
   9   1.0000      -0.290750        -7.9117
  10   1.0000      -0.290738        -7.9114
  11   1.0000      -0.290716        -7.9108
  12   0.0000      -0.018429        -0.5015
  13   0.0000       0.062679         1.7056
  14   0.0000       0.062698         1.7061
  15   0.0000       0.062936         1.7126
  16   0.0000       0.116613         3.1732

MULLIKEN ATOMIC CHARGES AND SPIN POPULATIONS
--------------------------------------------
   0 Co:   -0.000000    3.000000
Sum of atomic charges         :   -0.0000000

LOEWDIN ATOMIC CHARGES AND SPIN POPULATIONS
-------------------------------------------
   0 Co:   -0.000000    3.000000

FINAL SINGLE POINT ENERGY     -1382.560310976133

DIPOLE MOMENT
-------------
                                X             Y             Z
Electronic contribution:      0.00000       0.00000      -0.00000
Nuclear contribution   :      0.00000       0.00000       0.00000
                        -----------------------------------------
Total Dipole Moment    :      0.00000       0.00000      -0.00000
                        -----------------------------------------
Magnitude (a.u.)       :      0.00000
Magnitude (Debye)      :      0.00000

Rotational constants in cm-1:     0.000000     0.000000     0.000000
Rotational constants in MHz :     0.000000     0.000000     0.000000

                             ****ORCA TERMINATED NORMALLY****
TOTAL RUN TIME: 0 days 0 hours 0 minutes 4 seconds 914 msec
