                         Program Version 4.2.0 -  RELEASE  -
|  1> #
|  2> # TMD19_FeCl wB97X-V/Def2-TZVPPD
|  3> #
|  4> ! wb97x-v def2-tzvppd def2/jk grid4 nofinalgrid
|  5>
|  6> *xyz 0 6
|  7> Fe       0.000000    0.000000    0.869767
|  8> Cl       0.000000    0.000000   -1.330233
|  9> *
| 10>
| 11> %maxcore 5000
| 12>
| 13> %pal
| 14> nprocs = 24
| 15> end
| 16>
| 17>
| 18>                          ****END OF INPUT****

CARTESIAN COORDINATES (ANGSTROEM)
---------------------------------
  Fe     0.000000    0.000000    0.869767
  Cl     0.000000    0.000000   -1.330233

 Total Charge           Charge          ....    0
 Multiplicity           Mult            ....    6
 Number of Electrons    NEL             ....   43
 Basis Dimension        Dim             ....  118

ORBITAL ENERGIES
----------------
                 SPIN UP ORBITALS
  NO   OCC          E(Eh)            E(eV)
   0   1.0000    -256.096286     -6968.7342
   1   1.0000    -101.488043     -2761.6301
   2   1.0000     -30.243144      -822.9578
   3   1.0000     -26.100965      -710.2434
   4   1.0000     -26.100965      -710.2434
   5   1.0000     -26.068311      -709.3548
   6   1.0000      -9.528225      -259.2762
   7   1.0000      -7.278956      -198.0705
   8   1.0000      -7.276741      -198.0102
   9   1.0000      -7.276741      -198.0102
  10   1.0000      -3.778378      -102.8149
  11   1.0000      -2.574746       -70.0624
  12   1.0000      -2.574746       -70.0624
  13   1.0000      -2.509107       -68.2763
  14   1.0000      -0.916385       -24.9361
  15   1.0000      -0.591629       -16.0990
  16   1.0000      -0.591626       -16.0990
  17   1.0000      -0.568040       -15.4572
  18   1.0000      -0.568040       -15.4572
  19   1.0000      -0.545725       -14.8499
  20   1.0000      -0.441952       -12.0261
  21   1.0000      -0.413060       -11.2399
  22   1.0000      -0.413060       -11.2399
  23   1.0000      -0.295442        -8.0394
  24   0.0000       0.014688         0.3997
  25   0.0000       0.014688         0.3997
  26   0.0000       0.054382         1.4798
  27   0.0000       0.091180         2.4811
  28   0.0000       0.112579         3.0634

                 SPIN DOWN ORBITALS
  NO   OCC          E(Eh)            E(eV)
   0   1.0000    -256.094257     -6968.6790
   1   1.0000    -101.486580     -2761.5902
   2   1.0000     -30.166415      -820.8699
   3   1.0000     -26.034218      -708.4271
   4   1.0000     -26.034218      -708.4271
   5   1.0000     -26.015431      -707.9159
   6   1.0000      -9.526973      -259.2421
   7   1.0000      -7.276448      -198.0022
   8   1.0000      -7.274945      -197.9613
   9   1.0000      -7.274945      -197.9613
  10   1.0000      -3.593935       -97.7959
  11   1.0000      -2.358162       -64.1688
  12   1.0000      -2.358162       -64.1688
  13   1.0000      -2.345077       -63.8128
  14   1.0000      -0.906137       -24.6572
  15   1.0000      -0.479488       -13.0475
  16   1.0000      -0.417004       -11.3473
  17   1.0000      -0.417004       -11.3473
  18   1.0000      -0.388026       -10.5587
  19   0.0000      -0.055419        -1.5080
  20   0.0000      -0.055416        -1.5079
  21   0.0000      -0.022163        -0.6031
  22   0.0000      -0.022163        -0.6031
  23   0.0000      -0.020208        -0.5499

MULLIKEN ATOMIC CHARGES AND SPIN POPULATIONS
--------------------------------------------
   0 Fe:    0.411281    4.895832
   1 Cl:   -0.411281    0.104168
Sum of atomic charges         :   -0.0000000

LOEWDIN ATOMIC CHARGES AND SPIN POPULATIONS
-------------------------------------------
   0 Fe:    0.268827    4.740175
   1 Cl:   -0.268827    0.259825

  Mayer bond orders larger than 0.100000
B(  0-Fe,  1-Cl) :   0.8107

FINAL SINGLE POINT ENERGY     -1723.703575735339

DIPOLE MOMENT
-------------
                                X             Y             Z
Electronic contribution:     -0.00000      -0.00000       2.28879
Nuclear contribution   :      0.00000       0.00000      -1.26002
                        -----------------------------------------
Total Dipole Moment    :     -0.00000      -0.00000       1.02877
                        -----------------------------------------
Magnitude (a.u.)       :      1.02877
Magnitude (Debye)      :      2.61493

Rotational constants in cm-1:     0.000000     0.160606     0.160606
Rotational constants in MHz :     0.000000  4814.831818  4814.831818

                             ****ORCA TERMINATED NORMALLY****
TOTAL RUN TIME: 0 days 0 hours 0 minutes 6 seconds 260 msec
