                         Program Version 4.2.0 -  RELEASE  -
|  1> #
|  2> # TMD10_Mn wB97X-V/Def2-TZVPPD
|  3> #
|  4> ! wb97x-v def2-tzvppd def2/jk grid4 nofinalgrid
|  5>
|  6> *xyz 0 6
|  7> Mn       0.000000    0.000000    0.000000
|  8> *
|  9>
| 10> %maxcore 5000
| 11>
| 12> %pal
| 13> nprocs = 24
| 14> end
| 15>
| 16>
| 17>                          ****END OF INPUT****

CARTESIAN COORDINATES (ANGSTROEM)
---------------------------------
  Mn     0.000000    0.000000    0.000000

 Total Charge           Charge          ....    0
 Multiplicity           Mult            ....    6
 Number of Electrons    NEL             ....   25
 Basis Dimension        Dim             ....   67

ORBITAL ENERGIES
----------------
                 SPIN UP ORBITALS
  NO   OCC          E(Eh)            E(eV)
   0   1.0000    -235.277831     -6402.2353
   1   1.0000     -27.269372      -742.0373
   2   1.0000     -23.348709      -635.3507
   3   1.0000     -23.340070      -635.1156
   4   1.0000     -23.321858      -634.6200
   5   1.0000      -3.241170       -88.1967
   6   1.0000      -2.136178       -58.1283
   7   1.0000      -2.117157       -57.6108
   8   1.0000      -2.076876       -56.5147
   9   1.0000      -0.336497        -9.1566
  10   1.0000      -0.335868        -9.1394
  11   1.0000      -0.319190        -8.6856
  12   1.0000      -0.311438        -8.4747
  13   1.0000      -0.280375        -7.6294
  14   1.0000      -0.245266        -6.6740
  15   0.0000       0.025354         0.6899
  16   0.0000       0.027292         0.7427
  17   0.0000       0.031212         0.8493
  18   0.0000       0.149704         4.0737
  19   0.0000       0.152193         4.1414

                 SPIN DOWN ORBITALS
  NO   OCC          E(Eh)            E(eV)
   0   1.0000    -235.276183     -6402.1904
   1   1.0000     -27.208793      -740.3889
   2   1.0000     -23.293507      -633.8485
   3   1.0000     -23.289407      -633.7370
   4   1.0000     -23.280485      -633.4942
   5   1.0000      -3.080401       -83.8220
   6   1.0000      -1.939034       -52.7638
   7   1.0000      -1.936947       -52.7070
   8   1.0000      -1.930046       -52.5192
   9   1.0000      -0.198710        -5.4072
  10   0.0000       0.003831         0.1043
  11   0.0000       0.062136         1.6908
  12   0.0000       0.063045         1.7155
  13   0.0000       0.066158         1.8003
  14   0.0000       0.137173         3.7327

MULLIKEN ATOMIC CHARGES AND SPIN POPULATIONS
--------------------------------------------
   0 Mn:   -0.000000    5.000000
Sum of atomic charges         :   -0.0000000

LOEWDIN ATOMIC CHARGES AND SPIN POPULATIONS
-------------------------------------------
   0 Mn:   -0.000000    5.000000

FINAL SINGLE POINT ENERGY     -1150.766835139663

DIPOLE MOMENT
-------------
                                X             Y             Z
Electronic contribution:      0.00000       0.00000      -0.00000
Nuclear contribution   :      0.00000       0.00000       0.00000
                        -----------------------------------------
Total Dipole Moment    :      0.00000       0.00000      -0.00000
                        -----------------------------------------
Magnitude (a.u.)       :      0.00000
Magnitude (Debye)      :      0.00000

Rotational constants in cm-1:     0.000000     0.000000     0.000000
Rotational constants in MHz :     0.000000     0.000000     0.000000

                             ****ORCA TERMINATED NORMALLY****
TOTAL RUN TIME: 0 days 0 hours 0 minutes 17 seconds 320 msec
