                         Program Version 4.2.0 -  RELEASE  -
|  1> #
|  2> # TMD17_CrS wB97X-V/Def2-TZVPPD
|  3> #
|  4> ! wb97x-v def2-tzvppd def2/jk grid4 nofinalgrid
|  5>
|  6> *xyz 0 5
|  7> Cr       0.000000    0.000000    0.836000
|  8> S        0.000000    0.000000   -1.254000
|  9> *
| 10>
| 11> %maxcore 5000
| 12>
| 13> %pal
| 14> nprocs = 24
| 15> end
| 16>
| 17>
| 18>                          ****END OF INPUT****

CARTESIAN COORDINATES (ANGSTROEM)
---------------------------------
  Cr     0.000000    0.000000    0.836000
  S      0.000000    0.000000   -1.254000

 Total Charge           Charge          ....    0
 Multiplicity           Mult            ....    5
 Number of Electrons    NEL             ....   40
 Basis Dimension        Dim             ....  118

ORBITAL ENERGIES
----------------
                 SPIN UP ORBITALS
  NO   OCC          E(Eh)            E(eV)
   0   1.0000    -215.715264     -5869.9108
   1   1.0000     -88.794407     -2416.2187
   2   1.0000     -24.858195      -676.4259
   3   1.0000     -21.144944      -575.3832
   4   1.0000     -21.144827      -575.3800
   5   1.0000     -21.126767      -574.8885
   6   1.0000      -7.972565      -216.9445
   7   1.0000      -5.924846      -161.2233
   8   1.0000      -5.924286      -161.2080
   9   1.0000      -5.924264      -161.2074
  10   1.0000      -3.125903       -85.0602
  11   1.0000      -2.080227       -56.6059
  12   1.0000      -2.080070       -56.6016
  13   1.0000      -2.064182       -56.1692
  14   1.0000      -0.739007       -20.1094
  15   1.0000      -0.464580       -12.6419
  16   1.0000      -0.446433       -12.1481
  17   1.0000      -0.445974       -12.1356
  18   1.0000      -0.426123       -11.5954
  19   1.0000      -0.324184        -8.8215
  20   1.0000      -0.299227        -8.1424
  21   1.0000      -0.299102        -8.1390
  22   0.0000      -0.070243        -1.9114
  23   0.0000      -0.050169        -1.3652
  24   0.0000       0.020609         0.5608
  25   0.0000       0.020611         0.5609
  26   0.0000       0.053759         1.4629

                 SPIN DOWN ORBITALS
  NO   OCC          E(Eh)            E(eV)
   0   1.0000    -215.714040     -5869.8775
   1   1.0000     -88.794013     -2416.2079
   2   1.0000     -24.808514      -675.0740
   3   1.0000     -21.106330      -574.3324
   4   1.0000     -21.105950      -574.3221
   5   1.0000     -21.082118      -573.6736
   6   1.0000      -7.972222      -216.9352
   7   1.0000      -5.927150      -161.2859
   8   1.0000      -5.922310      -161.1543
   9   1.0000      -5.922306      -161.1541
  10   1.0000      -2.989129       -81.3383
  11   1.0000      -1.941830       -52.8399
  12   1.0000      -1.940840       -52.8129
  13   1.0000      -1.893783       -51.5325
  14   1.0000      -0.733360       -19.9557
  15   1.0000      -0.362631        -9.8677
  16   1.0000      -0.321415        -8.7461
  17   1.0000      -0.321282        -8.7425
  18   0.0000      -0.048794        -1.3278
  19   0.0000      -0.011409        -0.3104
  20   0.0000       0.009815         0.2671
  21   0.0000       0.010158         0.2764
  22   0.0000       0.010900         0.2966

MULLIKEN ATOMIC CHARGES AND SPIN POPULATIONS
--------------------------------------------
   0 Cr:    0.476382    3.882119
   1 S :   -0.476382    0.117881
Sum of atomic charges         :   -0.0000000

LOEWDIN ATOMIC CHARGES AND SPIN POPULATIONS
-------------------------------------------
   0 Cr:    0.263942    3.726129
   1 S :   -0.263942    0.273871

  Mayer bond orders larger than 0.100000
B(  0-Cr,  1-S ) :   2.0569

FINAL SINGLE POINT ENERGY     -1442.393776729860

DIPOLE MOMENT
-------------
                                X             Y             Z
Electronic contribution:     -0.00000      -0.00000       5.70184
Nuclear contribution   :      0.00000       0.00000      -2.93936
                        -----------------------------------------
Total Dipole Moment    :     -0.00000      -0.00000       2.76248
                        -----------------------------------------
Magnitude (a.u.)       :      2.76248
Magnitude (Debye)      :      7.02166

Rotational constants in cm-1:     0.000000     0.194593     0.194593
Rotational constants in MHz :     0.000000  5833.746532  5833.746532

                             ****ORCA TERMINATED NORMALLY****
TOTAL RUN TIME: 0 days 0 hours 0 minutes 6 seconds 856 msec
