                         Program Version 4.2.0 -  RELEASE  -
|  1> #
|  2> # TMD13_Cu wB97X-V/Def2-TZVPPD
|  3> #
|  4> ! wb97x-v def2-tzvppd def2/jk grid4 nofinalgrid
|  5>
|  6> *xyz 0 2
|  7> Cu       0.000000    0.000000    0.000000
|  8> *
|  9>
| 10> %maxcore 5000
| 11>
| 12> %pal
| 13> nprocs = 24
| 14> end
| 15>
| 16>
| 17>                          ****END OF INPUT****

CARTESIAN COORDINATES (ANGSTROEM)
---------------------------------
  Cu     0.000000    0.000000    0.000000

 Total Charge           Charge          ....    0
 Multiplicity           Mult            ....    2
 Number of Electrons    NEL             ....   29
 Basis Dimension        Dim             ....   67

ORBITAL ENERGIES
----------------
                 SPIN UP ORBITALS
  NO   OCC          E(Eh)            E(eV)
   0   1.0000    -322.843884     -8785.0287
   1   1.0000     -38.820708     -1056.3652
   2   1.0000     -34.017899      -925.6741
   3   1.0000     -34.017898      -925.6741
   4   1.0000     -34.017897      -925.6740
   5   1.0000      -4.373925      -119.0206
   6   1.0000      -2.868775       -78.0633
   7   1.0000      -2.868774       -78.0633
   8   1.0000      -2.868773       -78.0633
   9   1.0000      -0.365556        -9.9473
  10   1.0000      -0.365556        -9.9473
  11   1.0000      -0.365556        -9.9473
  12   1.0000      -0.365555        -9.9473
  13   1.0000      -0.365555        -9.9473
  14   1.0000      -0.266163        -7.2427
  15   0.0000       0.037996         1.0339
  16   0.0000       0.037998         1.0340
  17   0.0000       0.038000         1.0340
  18   0.0000       0.150097         4.0844
  19   0.0000       0.190411         5.1814

                 SPIN DOWN ORBITALS
  NO   OCC          E(Eh)            E(eV)
   0   1.0000    -322.842733     -8784.9974
   1   1.0000     -38.820554     -1056.3610
   2   1.0000     -34.017942      -925.6753
   3   1.0000     -34.017940      -925.6752
   4   1.0000     -34.017940      -925.6752
   5   1.0000      -4.372852      -118.9914
   6   1.0000      -2.868526       -78.0566
   7   1.0000      -2.868522       -78.0565
   8   1.0000      -2.868522       -78.0564
   9   1.0000      -0.362922        -9.8756
  10   1.0000      -0.362922        -9.8756
  11   1.0000      -0.362922        -9.8756
  12   1.0000      -0.362920        -9.8756
  13   1.0000      -0.362920        -9.8756
  14   0.0000      -0.029348        -0.7986
  15   0.0000       0.063202         1.7198
  16   0.0000       0.063206         1.7199
  17   0.0000       0.063209         1.7200
  18   0.0000       0.179062         4.8725

MULLIKEN ATOMIC CHARGES AND SPIN POPULATIONS
--------------------------------------------
   0 Cu:   -0.000000    1.000000
Sum of atomic charges         :   -0.0000000

LOEWDIN ATOMIC CHARGES AND SPIN POPULATIONS
-------------------------------------------
   0 Cu:   -0.000000    1.000000

FINAL SINGLE POINT ENERGY     -1640.321795988489

DIPOLE MOMENT
-------------
                                X             Y             Z
Electronic contribution:      0.00000       0.00000      -0.00000
Nuclear contribution   :      0.00000       0.00000       0.00000
                        -----------------------------------------
Total Dipole Moment    :      0.00000       0.00000      -0.00000
                        -----------------------------------------
Magnitude (a.u.)       :      0.00000
Magnitude (Debye)      :      0.00000

Rotational constants in cm-1:     0.000000     0.000000     0.000000
Rotational constants in MHz :     0.000000     0.000000     0.000000

                             ****ORCA TERMINATED NORMALLY****
TOTAL RUN TIME: 0 days 0 hours 0 minutes 3 seconds 943 msec
