                         Program Version 4.2.0 -  RELEASE  -
|  1> #
|  2> # TMD14_Zn wB97X-V/Def2-TZVPPD
|  3> #
|  4> ! wb97x-v def2-tzvppd def2/jk grid4 nofinalgrid
|  5>
|  6> *xyz 0 1
|  7> Zn       0.000000    0.000000    0.000000
|  8> *
|  9>
| 10> %maxcore 5000
| 11>
| 12> %pal
| 13> nprocs = 24
| 14> end
| 15>
| 16>
| 17>                          ****END OF INPUT****

CARTESIAN COORDINATES (ANGSTROEM)
---------------------------------
  Zn     0.000000    0.000000    0.000000

 Total Charge           Charge          ....    0
 Multiplicity           Mult            ....    1
 Number of Electrons    NEL             ....   30
 Basis Dimension        Dim             ....   67

ORBITAL ENERGIES
----------------

  NO   OCC          E(Eh)            E(eV)
   0   2.0000    -347.098086     -9445.0191
   1   2.0000     -42.238975     -1149.3809
   2   2.0000     -37.209335     -1012.5175
   3   2.0000     -37.209335     -1012.5175
   4   2.0000     -37.209335     -1012.5175
   5   2.0000      -4.913589      -133.7056
   6   2.0000      -3.304416       -89.9177
   7   2.0000      -3.304416       -89.9177
   8   2.0000      -3.304416       -89.9177
   9   2.0000      -0.584625       -15.9085
  10   2.0000      -0.584625       -15.9085
  11   2.0000      -0.584625       -15.9085
  12   2.0000      -0.584625       -15.9085
  13   2.0000      -0.584625       -15.9085
  14   2.0000      -0.319895        -8.7048
  15   0.0000       0.024867         0.6767
  16   0.0000       0.024867         0.6767
  17   0.0000       0.024867         0.6767
  18   0.0000       0.090970         2.4754
  19   0.0000       0.090970         2.4754

MULLIKEN ATOMIC CHARGES
-----------------------
   0 Zn:   -0.000000
Sum of atomic charges:   -0.0000000

LOEWDIN ATOMIC CHARGES
----------------------
   0 Zn:   -0.000000

FINAL SINGLE POINT ENERGY     -1779.219371484876

DIPOLE MOMENT
-------------
                                X             Y             Z
Electronic contribution:      0.00000       0.00000       0.00000
Nuclear contribution   :      0.00000       0.00000       0.00000
                        -----------------------------------------
Total Dipole Moment    :      0.00000       0.00000       0.00000
                        -----------------------------------------
Magnitude (a.u.)       :      0.00000
Magnitude (Debye)      :      0.00000

Rotational constants in cm-1:     0.000000     0.000000     0.000000
Rotational constants in MHz :     0.000000     0.000000     0.000000

                             ****ORCA TERMINATED NORMALLY****
TOTAL RUN TIME: 0 days 0 hours 0 minutes 3 seconds 730 msec
