                         Program Version 4.2.0 -  RELEASE  -
|  1> #
|  2> # TMD16_VO wB97X-V/Def2-TZVPPD
|  3> #
|  4> ! wb97x-v def2-tzvppd def2/jk grid4 nofinalgrid
|  5>
|  6> *xyz 0 4
|  7> V        0.000000    0.000000    0.412903
|  8> O        0.000000    0.000000   -1.187097
|  9> *
| 10>
| 11> %maxcore 5000
| 12>
| 13> %pal
| 14> nprocs = 24
| 15> end
| 16>
| 17>
| 18>                          ****END OF INPUT****

CARTESIAN COORDINATES (ANGSTROEM)
---------------------------------
  V      0.000000    0.000000    0.412903
  O      0.000000    0.000000   -1.187097

 Total Charge           Charge          ....    0
 Multiplicity           Mult            ....    4
 Number of Electrons    NEL             ....   31
 Basis Dimension        Dim             ....  107

ORBITAL ENERGIES
----------------
                 SPIN UP ORBITALS
  NO   OCC          E(Eh)            E(eV)
   0   1.0000    -196.807405     -5355.4017
   1   1.0000     -22.325764      -607.5149
   2   1.0000     -19.191463      -522.2263
   3   1.0000     -18.828137      -512.3396
   4   1.0000     -18.816889      -512.0336
   5   1.0000     -18.816889      -512.0336
   6   1.0000      -2.784145       -75.7604
   7   1.0000      -1.830135       -49.8005
   8   1.0000      -1.812411       -49.3182
   9   1.0000      -1.812411       -49.3182
  10   1.0000      -0.985941       -26.8288
  11   1.0000      -0.442443       -12.0395
  12   1.0000      -0.423312       -11.5189
  13   1.0000      -0.423312       -11.5189
  14   1.0000      -0.338027        -9.1982
  15   1.0000      -0.338026        -9.1982
  16   1.0000      -0.267915        -7.2903
  17   0.0000      -0.002967        -0.0807
  18   0.0000      -0.002967        -0.0807
  19   0.0000       0.004677         0.1273
  20   0.0000       0.058279         1.5859
  21   0.0000       0.058279         1.5859

                 SPIN DOWN ORBITALS
  NO   OCC          E(Eh)            E(eV)
   0   1.0000    -196.806357     -5355.3732
   1   1.0000     -22.296608      -606.7215
   2   1.0000     -19.198014      -522.4045
   3   1.0000     -18.816168      -512.0140
   4   1.0000     -18.787051      -511.2216
   5   1.0000     -18.787051      -511.2216
   6   1.0000      -2.697044       -73.3903
   7   1.0000      -1.780118       -48.4395
   8   1.0000      -1.693504       -46.0826
   9   1.0000      -1.693504       -46.0826
  10   1.0000      -1.001899       -27.2630
  11   1.0000      -0.440319       -11.9817
  12   1.0000      -0.432434       -11.7671
  13   1.0000      -0.432434       -11.7671
  14   0.0000      -0.001104        -0.0300
  15   0.0000       0.050463         1.3732
  16   0.0000       0.050463         1.3732
  17   0.0000       0.053001         1.4422
  18   0.0000       0.086423         2.3517

MULLIKEN ATOMIC CHARGES AND SPIN POPULATIONS
--------------------------------------------
   0 V :    0.737281    3.185856
   1 O :   -0.737281   -0.185856
Sum of atomic charges         :    0.0000000

LOEWDIN ATOMIC CHARGES AND SPIN POPULATIONS
-------------------------------------------
   0 V :    0.432488    3.052820
   1 O :   -0.432488   -0.052820

  Mayer bond orders larger than 0.100000
B(  0-V ,  1-O ) :   2.3274

FINAL SINGLE POINT ENERGY     -1019.058297789866

DIPOLE MOMENT
-------------
                                X             Y             Z
Electronic contribution:     -0.00000      -0.00000       3.35439
Nuclear contribution   :      0.00000       0.00000      -1.78611
                        -----------------------------------------
Total Dipole Moment    :     -0.00000      -0.00000       1.56827
                        -----------------------------------------
Magnitude (a.u.)       :      1.56827
Magnitude (Debye)      :      3.98623

Rotational constants in cm-1:     0.000000     0.540859     0.540859
Rotational constants in MHz :     0.000000 16214.556702 16214.556702

                             ****ORCA TERMINATED NORMALLY****
TOTAL RUN TIME: 0 days 0 hours 0 minutes 6 seconds 649 msec
