                         Program Version 4.2.0 -  RELEASE  -
|  1> #
|  2> # TMD23_CuBr wB97X-V/Def2-TZVPPD
|  3> #
|  4> ! wb97x-v def2-tzvppd def2/jk grid4 nofinalgrid
|  5>
|  6> *xyz 0 1
|  7> Cu       0.000000    0.000000   -1.208594
|  8> Br       0.000000    0.000000    1.001406
|  9> *
| 10>
| 11> %maxcore 5000
| 12>
| 13> %pal
| 14> nprocs = 24
| 15> end
| 16>
| 17>
| 18>                          ****END OF INPUT****

CARTESIAN COORDINATES (ANGSTROEM)
---------------------------------
  Cu     0.000000    0.000000   -1.208594
  Br     0.000000    0.000000    1.001406

 Total Charge           Charge          ....    0
 Multiplicity           Mult            ....    1
 Number of Electrons    NEL             ....   64
 Basis Dimension        Dim             ....  124

ORBITAL ENERGIES
----------------

  NO   OCC          E(Eh)            E(eV)
   0   2.0000    -482.606006    -13132.3771
   1   2.0000    -322.900888     -8786.5799
   2   2.0000     -62.480641     -1700.1847
   3   2.0000     -56.285180     -1531.5976
   4   2.0000     -56.283539     -1531.5529
   5   2.0000     -56.283539     -1531.5529
   6   2.0000     -38.879650     -1057.9691
   7   2.0000     -34.076851      -927.2783
   8   2.0000     -34.076851      -927.2783
   9   2.0000     -34.076524      -927.2694
  10   2.0000      -8.749397      -238.0832
  11   2.0000      -6.575601      -178.9312
  12   2.0000      -6.570201      -178.7842
  13   2.0000      -6.570201      -178.7842
  14   2.0000      -4.433453      -120.6404
  15   2.0000      -2.931162       -79.7610
  16   2.0000      -2.927208       -79.6534
  17   2.0000      -2.927208       -79.6534
  18   2.0000      -2.697959       -73.4152
  19   2.0000      -2.696350       -73.3714
  20   2.0000      -2.696350       -73.3714
  21   2.0000      -2.692120       -73.2563
  22   2.0000      -2.692091       -73.2555
  23   2.0000      -0.845071       -22.9955
  24   2.0000      -0.453532       -12.3412
  25   2.0000      -0.436698       -11.8832
  26   2.0000      -0.436698       -11.8832
  27   2.0000      -0.420442       -11.4408
  28   2.0000      -0.420439       -11.4407
  29   2.0000      -0.376058       -10.2331
  30   2.0000      -0.352835        -9.6011
  31   2.0000      -0.352835        -9.6011
  32   0.0000      -0.042567        -1.1583
  33   0.0000       0.045973         1.2510
  34   0.0000       0.045973         1.2510
  35   0.0000       0.059631         1.6226
  36   0.0000       0.096947         2.6381

MULLIKEN ATOMIC CHARGES
-----------------------
   0 Cu:    0.223038
   1 Br:   -0.223038
Sum of atomic charges:   -0.0000000

LOEWDIN ATOMIC CHARGES
----------------------
   0 Cu:    0.030791
   1 Br:   -0.030791

  Mayer bond orders larger than 0.100000
B(  0-Cu,  1-Br) :   1.1275

FINAL SINGLE POINT ENERGY     -4214.324947845658

DIPOLE MOMENT
-------------
                                X             Y             Z
Electronic contribution:      0.00000      -0.00000       0.56964
Nuclear contribution   :      0.00000       0.00000      -2.70316
                        -----------------------------------------
Total Dipole Moment    :      0.00000      -0.00000      -2.13353
                        -----------------------------------------
Magnitude (a.u.)       :      2.13353
Magnitude (Debye)      :      5.42300

Rotational constants in cm-1:     0.000000     0.097510     0.097510
Rotational constants in MHz :     0.000000  2923.285786  2923.285786

                             ****ORCA TERMINATED NORMALLY****
TOTAL RUN TIME: 0 days 0 hours 0 minutes 8 seconds 531 msec
