                         Program Version 4.2.0 -  RELEASE  -
|  1> #
|  2> # TMD20_FeS wB97X-V/Def2-TZVPPD
|  3> #
|  4> ! wb97x-v def2-tzvppd def2/jk grid4 nofinalgrid
|  5>
|  6> *xyz 0 5
|  7> Fe       0.000000    0.000000    0.769524
|  8> S        0.000000    0.000000   -1.250476
|  9> *
| 10>
| 11> %maxcore 5000
| 12>
| 13> %pal
| 14> nprocs = 24
| 15> end
| 16>
| 17>
| 18>                          ****END OF INPUT****

CARTESIAN COORDINATES (ANGSTROEM)
---------------------------------
  Fe     0.000000    0.000000    0.769524
  S      0.000000    0.000000   -1.250476

 Total Charge           Charge          ....    0
 Multiplicity           Mult            ....    5
 Number of Electrons    NEL             ....   42
 Basis Dimension        Dim             ....  118

ORBITAL ENERGIES
----------------
                 SPIN UP ORBITALS
  NO   OCC          E(Eh)            E(eV)
   0   1.0000    -256.003561     -6966.2111
   1   1.0000     -88.800938     -2416.3964
   2   1.0000     -30.131649      -819.9239
   3   1.0000     -25.995586      -707.3759
   4   1.0000     -25.974145      -706.7924
   5   1.0000     -25.974145      -706.7924
   6   1.0000      -7.979287      -217.1274
   7   1.0000      -5.931658      -161.4086
   8   1.0000      -5.931587      -161.4067
   9   1.0000      -5.931587      -161.4067
  10   1.0000      -3.662078       -99.6502
  11   1.0000      -2.470863       -67.2356
  12   1.0000      -2.423542       -65.9479
  13   1.0000      -2.423542       -65.9479
  14   1.0000      -0.754232       -20.5237
  15   1.0000      -0.487624       -13.2689
  16   1.0000      -0.486536       -13.2393
  17   1.0000      -0.486536       -13.2393
  18   1.0000      -0.460844       -12.5402
  19   1.0000      -0.428265       -11.6537
  20   1.0000      -0.342778        -9.3275
  21   1.0000      -0.311732        -8.4827
  22   1.0000      -0.311732        -8.4827
  23   0.0000      -0.052782        -1.4363
  24   0.0000       0.036512         0.9936
  25   0.0000       0.036512         0.9936
  26   0.0000       0.060597         1.6489
  27   0.0000       0.095946         2.6108

                 SPIN DOWN ORBITALS
  NO   OCC          E(Eh)            E(eV)
   0   1.0000    -256.002331     -6966.1776
   1   1.0000     -88.799101     -2416.3464
   2   1.0000     -30.069136      -818.2228
   3   1.0000     -25.939462      -705.8487
   4   1.0000     -25.926346      -705.4917
   5   1.0000     -25.926346      -705.4917
   6   1.0000      -7.977735      -217.0852
   7   1.0000      -5.931623      -161.4077
   8   1.0000      -5.927629      -161.2990
   9   1.0000      -5.927629      -161.2990
  10   1.0000      -3.511590       -95.5552
  11   1.0000      -2.284234       -62.1572
  12   1.0000      -2.272718       -61.8438
  13   1.0000      -2.272718       -61.8438
  14   1.0000      -0.737136       -20.0585
  15   1.0000      -0.373561       -10.1651
  16   1.0000      -0.356104        -9.6901
  17   1.0000      -0.325621        -8.8606
  18   1.0000      -0.325621        -8.8606
  19   0.0000      -0.049196        -1.3387
  20   0.0000       0.000022         0.0006
  21   0.0000       0.000022         0.0006
  22   0.0000       0.000290         0.0079
  23   0.0000       0.044445         1.2094

MULLIKEN ATOMIC CHARGES AND SPIN POPULATIONS
--------------------------------------------
   0 Fe:    0.464203    3.597309
   1 S :   -0.464203    0.402691
Sum of atomic charges         :   -0.0000000

LOEWDIN ATOMIC CHARGES AND SPIN POPULATIONS
-------------------------------------------
   0 Fe:    0.144772    3.518540
   1 S :   -0.144772    0.481460

  Mayer bond orders larger than 0.100000
B(  0-Fe,  1-S ) :   2.0588

FINAL SINGLE POINT ENERGY     -1661.678265256664

DIPOLE MOMENT
-------------
                                X             Y             Z
Electronic contribution:      0.00000      -0.00000       5.23448
Nuclear contribution   :      0.00000       0.00000      -2.60707
                        -----------------------------------------
Total Dipole Moment    :      0.00000      -0.00000       2.62741
                        -----------------------------------------
Magnitude (a.u.)       :      2.62741
Magnitude (Debye)      :      6.67835

Rotational constants in cm-1:     0.000000     0.202836     0.202836
Rotational constants in MHz :     0.000000  6080.880231  6080.880231

                             ****ORCA TERMINATED NORMALLY****
TOTAL RUN TIME: 0 days 0 hours 0 minutes 6 seconds 996 msec
