                         Program Version 4.2.0 -  RELEASE  -
|  1> #
|  2> # TMD24_ZnS wB97X-V/Def2-TZVPPD
|  3> #
|  4> ! wb97x-v def2-tzvppd def2/jk grid4 nofinalgrid
|  5>
|  6> *xyz 0 1
|  7> Zn       0.000000    0.000000    0.720000
|  8> S        0.000000    0.000000   -1.350000
|  9> *
| 10>
| 11> %maxcore 5000
| 12>
| 13> %pal
| 14> nprocs = 24
| 15> end
| 16>
| 17>
| 18>                          ****END OF INPUT****

CARTESIAN COORDINATES (ANGSTROEM)
---------------------------------
  Zn     0.000000    0.000000    0.720000
  S      0.000000    0.000000   -1.350000

 Total Charge           Charge          ....    0
 Multiplicity           Mult            ....    1
 Number of Electrons    NEL             ....   46
 Basis Dimension        Dim             ....  118

ORBITAL ENERGIES
----------------

  NO   OCC          E(Eh)            E(eV)
   0   2.0000    -347.183655     -9447.3475
   1   2.0000     -88.821355     -2416.9519
   2   2.0000     -42.324415     -1151.7059
   3   2.0000     -37.294779     -1014.8425
   4   2.0000     -37.294779     -1014.8425
   5   2.0000     -37.294754     -1014.8419
   6   2.0000      -7.997963      -217.6356
   7   2.0000      -5.956391      -162.0816
   8   2.0000      -5.946486      -161.8121
   9   2.0000      -5.946486      -161.8121
  10   2.0000      -5.001584      -136.1000
  11   2.0000      -3.394631       -92.3726
  12   2.0000      -3.391456       -92.2862
  13   2.0000      -3.391456       -92.2862
  14   2.0000      -0.775571       -21.1044
  15   2.0000      -0.675267       -18.3749
  16   2.0000      -0.675267       -18.3749
  17   2.0000      -0.669445       -18.2165
  18   2.0000      -0.669442       -18.2164
  19   2.0000      -0.661726       -18.0065
  20   2.0000      -0.399197       -10.8627
  21   2.0000      -0.321604        -8.7513
  22   2.0000      -0.321604        -8.7513
  23   0.0000      -0.087545        -2.3822
  24   0.0000       0.020884         0.5683
  25   0.0000       0.020884         0.5683
  26   0.0000       0.037249         1.0136
  27   0.0000       0.075425         2.0524

MULLIKEN ATOMIC CHARGES
-----------------------
   0 Zn:    0.311121
   1 S :   -0.311121
Sum of atomic charges:   -0.0000000

LOEWDIN ATOMIC CHARGES
----------------------
   0 Zn:    0.382114
   1 S :   -0.382114

  Mayer bond orders larger than 0.100000
B(  0-Zn,  1-S ) :   1.7039

FINAL SINGLE POINT ENERGY     -2177.320142277067

DIPOLE MOMENT
-------------
                                X             Y             Z
Electronic contribution:     -0.00000       0.00000       5.82190
Nuclear contribution   :      0.00000       0.00000      -3.38342
                        -----------------------------------------
Total Dipole Moment    :     -0.00000       0.00000       2.43847
                        -----------------------------------------
Magnitude (a.u.)       :      2.43847
Magnitude (Debye)      :      6.19811

Rotational constants in cm-1:     0.000000     0.182888     0.182888
Rotational constants in MHz :     0.000000  5482.842292  5482.842292

                             ****ORCA TERMINATED NORMALLY****
TOTAL RUN TIME: 0 days 0 hours 0 minutes 7 seconds 168 msec
