                         Program Version 4.2.0 -  RELEASE  -
|  1> #
|  2> # TMD21_CoH wB97X-V/Def2-TZVPPD
|  3> #
|  4> ! wb97x-v def2-tzvppd def2/jk grid4 nofinalgrid
|  5>
|  6> *xyz 0 3
|  7> Co       0.000000    0.000000    0.053929
|  8> H        0.000000    0.000000   -1.456071
|  9> *
| 10>
| 11> %maxcore 5000
| 12>
| 13> %pal
| 14> nprocs = 24
| 15> end
| 16>
| 17>
| 18>                          ****END OF INPUT****

CARTESIAN COORDINATES (ANGSTROEM)
---------------------------------
  Co     0.000000    0.000000    0.053929
  H      0.000000    0.000000   -1.456071

 Total Charge           Charge          ....    0
 Multiplicity           Mult            ....    3
 Number of Electrons    NEL             ....   28
 Basis Dimension        Dim             ....   84

ORBITAL ENERGIES
----------------
                 SPIN UP ORBITALS
  NO   OCC          E(Eh)            E(eV)
   0   1.0000    -277.345954     -7546.9671
   1   1.0000     -32.827149      -893.2721
   2   1.0000     -28.462398      -774.5012
   3   1.0000     -28.462398      -774.5012
   4   1.0000     -28.461482      -774.4763
   5   1.0000      -3.804944      -103.5378
   6   1.0000      -2.491438       -67.7955
   7   1.0000      -2.491438       -67.7955
   8   1.0000      -2.491398       -67.7944
   9   1.0000      -0.409932       -11.1548
  10   1.0000      -0.374388       -10.1876
  11   1.0000      -0.342570        -9.3218
  12   1.0000      -0.342570        -9.3218
  13   1.0000      -0.340261        -9.2590
  14   1.0000      -0.311320        -8.4714
  15   0.0000      -0.002998        -0.0816
  16   0.0000       0.042148         1.1469
  17   0.0000       0.042148         1.1469
  18   0.0000       0.119450         3.2504
  19   0.0000       0.132959         3.6180

                 SPIN DOWN ORBITALS
  NO   OCC          E(Eh)            E(eV)
   0   1.0000    -277.345258     -7546.9481
   1   1.0000     -32.791324      -892.2973
   2   1.0000     -28.435261      -773.7628
   3   1.0000     -28.432406      -773.6851
   4   1.0000     -28.432406      -773.6851
   5   1.0000      -3.720910      -101.2511
   6   1.0000      -2.402684       -65.3804
   7   1.0000      -2.399384       -65.2906
   8   1.0000      -2.399384       -65.2906
   9   1.0000      -0.375671       -10.2225
  10   1.0000      -0.302498        -8.2314
  11   1.0000      -0.302498        -8.2314
  12   1.0000      -0.301659        -8.2086
  13   0.0000      -0.009988        -0.2718
  14   0.0000       0.049217         1.3393
  15   0.0000       0.049217         1.3393
  16   0.0000       0.066749         1.8163
  17   0.0000       0.104673         2.8483

MULLIKEN ATOMIC CHARGES AND SPIN POPULATIONS
--------------------------------------------
   0 Co:    0.095113    2.100763
   1 H :   -0.095113   -0.100763
Sum of atomic charges         :    0.0000000

LOEWDIN ATOMIC CHARGES AND SPIN POPULATIONS
-------------------------------------------
   0 Co:    0.244766    2.001791
   1 H :   -0.244766   -0.001791

  Mayer bond orders larger than 0.100000
B(  0-Co,  1-H ) :   0.9763

FINAL SINGLE POINT ENERGY     -1383.156748519865

DIPOLE MOMENT
-------------
                                X             Y             Z
Electronic contribution:      0.00000       0.00000       2.83396
Nuclear contribution   :      0.00000       0.00000      -1.50982
                        -----------------------------------------
Total Dipole Moment    :      0.00000       0.00000       1.32414
                        -----------------------------------------
Magnitude (a.u.)       :      1.32414
Magnitude (Debye)      :      3.36571

Rotational constants in cm-1:     0.000000     7.460162     7.460162
Rotational constants in MHz :     0.000000 223650.041735 223650.041735

                             ****ORCA TERMINATED NORMALLY****
TOTAL RUN TIME: 0 days 0 hours 0 minutes 5 seconds 404 msec
