                         Program Version 4.2.0 -  RELEASE  -
|  1> #
|  2> # TMD22_CoF wB97X-V/Def2-TZVPPD
|  3> #
|  4> ! wb97x-v def2-tzvppd def2/jk grid4 nofinalgrid
|  5>
|  6> *xyz 0 3
|  7> Co       0.000000    0.000000    0.440000
|  8> F        0.000000    0.000000   -1.320000
|  9> *
| 10>
| 11> %maxcore 5000
| 12>
| 13> %pal
| 14> nprocs = 24
| 15> end
| 16>
| 17>
| 18>                          ****END OF INPUT****

CARTESIAN COORDINATES (ANGSTROEM)
---------------------------------
  Co     0.000000    0.000000    0.440000
  F      0.000000    0.000000   -1.320000

 Total Charge           Charge          ....    0
 Multiplicity           Mult            ....    3
 Number of Electrons    NEL             ....   36
 Basis Dimension        Dim             ....  107

ORBITAL ENERGIES
----------------
                 SPIN UP ORBITALS
  NO   OCC          E(Eh)            E(eV)
   0   1.0000    -277.390534     -7548.1802
   1   1.0000     -32.877475      -894.6416
   2   1.0000     -28.533677      -776.4408
   3   1.0000     -28.500490      -775.5378
   4   1.0000     -28.500490      -775.5378
   5   1.0000     -24.665989      -671.1957
   6   1.0000      -3.862420      -105.1018
   7   1.0000      -2.597623       -70.6849
   8   1.0000      -2.524250       -68.6883
   9   1.0000      -2.524250       -68.6883
  10   1.0000      -1.196743       -32.5650
  11   1.0000      -0.512982       -13.9590
  12   1.0000      -0.483984       -13.1699
  13   1.0000      -0.483984       -13.1699
  14   1.0000      -0.399758       -10.8780
  15   1.0000      -0.399758       -10.8780
  16   1.0000      -0.370360       -10.0780
  17   1.0000      -0.370360       -10.0780
  18   1.0000      -0.368269       -10.0211
  19   0.0000      -0.041487        -1.1289
  20   0.0000       0.049534         1.3479
  21   0.0000       0.049534         1.3479
  22   0.0000       0.079858         2.1730
  23   0.0000       0.129071         3.5122

                 SPIN DOWN ORBITALS
  NO   OCC          E(Eh)            E(eV)
   0   1.0000    -277.390252     -7548.1725
   1   1.0000     -32.834249      -893.4653
   2   1.0000     -28.486042      -775.1446
   3   1.0000     -28.471964      -774.7615
   4   1.0000     -28.471964      -774.7615
   5   1.0000     -24.662814      -671.1093
   6   1.0000      -3.763223      -102.4025
   7   1.0000      -2.452958       -66.7484
   8   1.0000      -2.435425       -66.2713
   9   1.0000      -2.435425       -66.2713
  10   1.0000      -1.188170       -32.3317
  11   1.0000      -0.491282       -13.3685
  12   1.0000      -0.447154       -12.1677
  13   1.0000      -0.447154       -12.1677
  14   1.0000      -0.318124        -8.6566
  15   1.0000      -0.318124        -8.6566
  16   1.0000      -0.314871        -8.5681
  17   0.0000      -0.026814        -0.7297
  18   0.0000       0.034505         0.9389
  19   0.0000       0.034505         0.9389
  20   0.0000       0.076007         2.0683
  21   0.0000       0.076007         2.0683

MULLIKEN ATOMIC CHARGES AND SPIN POPULATIONS
--------------------------------------------
   0 Co:    0.680037    1.924810
   1 F :   -0.680037    0.075190
Sum of atomic charges         :   -0.0000000

LOEWDIN ATOMIC CHARGES AND SPIN POPULATIONS
-------------------------------------------
   0 Co:    0.542858    1.938793
   1 F :   -0.542858    0.061207

  Mayer bond orders larger than 0.100000
B(  0-Co,  1-F ) :   0.7458

FINAL SINGLE POINT ENERGY     -1482.458795163214

DIPOLE MOMENT
-------------
                                X             Y             Z
Electronic contribution:      0.00000       0.00000       2.86212
Nuclear contribution   :      0.00000       0.00000      -0.74365
                        -----------------------------------------
Total Dipole Moment    :      0.00000       0.00000       2.11847
                        -----------------------------------------
Magnitude (a.u.)       :      2.11847
Magnitude (Debye)      :      5.38472

Rotational constants in cm-1:     0.000000     0.378809     0.378809
Rotational constants in MHz :     0.000000 11356.420741 11356.420741

                             ****ORCA TERMINATED NORMALLY****
TOTAL RUN TIME: 0 days 0 hours 0 minutes 11 seconds 528 msec
