                         Program Version 4.2.0 -  RELEASE  -
|  1> #
|  2> # MOR02_bz TPSS-D3BJ/Def2-TZVPPD
|  3> #
|  4> ! tpss d3bj def2-tzvppd def2/j grid4 nofinalgrid
|  5>
|  6> *xyz 0 1
|  7> C        1.391947    0.103893   -0.000005
|  8> C        0.785946   -1.153510   -0.000002
|  9> C       -0.605997   -1.257403   -0.000005
| 10> C       -1.391947   -0.103892   -0.000002
| 11> C       -0.785947    1.153509   -0.000006
| 12> C        0.605998    1.257403   -0.000002
| 13> H        2.475503    0.184769    0.000018
| 14> H        1.397775   -2.051448    0.000027
| 15> H       -1.077745   -2.236217    0.000018
| 16> H       -2.475502   -0.184774    0.000031
| 17> H       -1.397773    2.051449    0.000014
| 18> H        1.077742    2.236219    0.000031
| 19> *
| 20>
| 21> %maxcore 5000
| 22>
| 23> %pal
| 24> nprocs = 24
| 25> end
| 26>
| 27>
| 28>                          ****END OF INPUT****

CARTESIAN COORDINATES (ANGSTROEM)
---------------------------------
  C      1.391947    0.103893   -0.000005
  C      0.785946   -1.153510   -0.000002
  C     -0.605997   -1.257403   -0.000005
  C     -1.391947   -0.103892   -0.000002
  C     -0.785947    1.153509   -0.000006
  C      0.605998    1.257403   -0.000002
  H      2.475503    0.184769    0.000018
  H      1.397775   -2.051448    0.000027
  H     -1.077745   -2.236217    0.000018
  H     -2.475502   -0.184774    0.000031
  H     -1.397773    2.051449    0.000014
  H      1.077742    2.236219    0.000031

 Total Charge           Charge          ....    0
 Multiplicity           Mult            ....    1
 Number of Electrons    NEL             ....   42
 Basis Dimension        Dim             ....  324

ORBITAL ENERGIES
----------------

  NO   OCC          E(Eh)            E(eV)
   0   2.0000      -9.991051      -271.8703
   1   2.0000      -9.990868      -271.8653
   2   2.0000      -9.990867      -271.8653
   3   2.0000      -9.990480      -271.8548
   4   2.0000      -9.990479      -271.8548
   5   2.0000      -9.990291      -271.8496
   6   2.0000      -0.793658       -21.5965
   7   2.0000      -0.690474       -18.7888
   8   2.0000      -0.690473       -18.7887
   9   2.0000      -0.554371       -15.0852
  10   2.0000      -0.554370       -15.0852
  11   2.0000      -0.480360       -13.0712
  12   2.0000      -0.422105       -11.4861
  13   2.0000      -0.401033       -10.9127
  14   2.0000      -0.381102       -10.3703
  15   2.0000      -0.381101       -10.3703
  16   2.0000      -0.334081        -9.0908
  17   2.0000      -0.306661        -8.3447
  18   2.0000      -0.306657        -8.3446
  19   2.0000      -0.231117        -6.2890
  20   2.0000      -0.231115        -6.2890
  21   0.0000      -0.037325        -1.0157
  22   0.0000      -0.037320        -1.0155
  23   0.0000       0.000345         0.0094
  24   0.0000       0.023584         0.6417
  25   0.0000       0.023644         0.6434

MULLIKEN ATOMIC CHARGES
-----------------------
   0 C :   -0.092734
   1 C :   -0.092041
   2 C :   -0.094011
   3 C :   -0.092973
   4 C :   -0.091520
   5 C :   -0.094478
   6 H :    0.093046
   7 H :    0.093366
   8 H :    0.092575
   9 H :    0.092931
  10 H :    0.093283
  11 H :    0.092555
Sum of atomic charges:    0.0000000

LOEWDIN ATOMIC CHARGES
----------------------
   0 C :    0.004883
   1 C :    0.004895
   2 C :    0.004887
   3 C :    0.004882
   4 C :    0.004895
   5 C :    0.004887
   6 H :   -0.004888
   7 H :   -0.004885
   8 H :   -0.004890
   9 H :   -0.004889
  10 H :   -0.004886
  11 H :   -0.004890

  Mayer bond orders larger than 0.100000
B(  0-C ,  1-C ) :   1.2107 B(  0-C ,  5-C ) :   1.2120 B(  0-C ,  6-H ) :   1.0363
B(  1-C ,  2-C ) :   1.2169 B(  1-C ,  7-H ) :   1.0356 B(  2-C ,  3-C ) :   1.2104
B(  2-C ,  8-H ) :   1.0357 B(  3-C ,  4-C ) :   1.2100 B(  3-C ,  9-H ) :   1.0367
B(  4-C ,  5-C ) :   1.2165 B(  4-C , 10-H ) :   1.0357 B(  5-C , 11-H ) :   1.0357

Dispersion correction           -0.013706556
FINAL SINGLE POINT ENERGY      -232.391038796178

DIPOLE MOMENT
-------------
                                X             Y             Z
Electronic contribution:      0.00000       0.00000      -0.00010
Nuclear contribution   :      0.00000      -0.00000       0.00014
                        -----------------------------------------
Total Dipole Moment    :      0.00000       0.00000       0.00004
                        -----------------------------------------
Magnitude (a.u.)       :      0.00004
Magnitude (Debye)      :      0.00010

Rotational constants in cm-1:     0.189759     0.189757     0.094879
Rotational constants in MHz :  5688.823776  5688.770067  2844.398461

                             ****ORCA TERMINATED NORMALLY****
TOTAL RUN TIME: 0 days 0 hours 0 minutes 5 seconds 273 msec
