                         Program Version 4.2.0 -  RELEASE  -
|  1> #
|  2> # MOR03_c2h4 TPSS-D3BJ/Def2-TZVPPD
|  3> #
|  4> ! tpss d3bj def2-tzvppd def2/j grid4 nofinalgrid
|  5>
|  6> *xyz 0 1
|  7> C        0.000000    0.665348   -0.000001
|  8> C        0.000000   -0.665348   -0.000001
|  9> H       -0.924311    1.237390    0.000003
| 10> H        0.924311    1.237390    0.000003
| 11> H        0.924311   -1.237390    0.000003
| 12> H       -0.924311   -1.237390    0.000003
| 13> *
| 14>
| 15> %maxcore 5000
| 16>
| 17> %pal
| 18> nprocs = 24
| 19> end
| 20>
| 21>
| 22>                          ****END OF INPUT****

CARTESIAN COORDINATES (ANGSTROEM)
---------------------------------
  C      0.000000    0.665348   -0.000001
  C      0.000000   -0.665348   -0.000001
  H     -0.924311    1.237390    0.000003
  H      0.924311    1.237390    0.000003
  H      0.924311   -1.237390    0.000003
  H     -0.924311   -1.237390    0.000003

 Total Charge           Charge          ....    0
 Multiplicity           Mult            ....    1
 Number of Electrons    NEL             ....   16
 Basis Dimension        Dim             ....  142

ORBITAL ENERGIES
----------------

  NO   OCC          E(Eh)            E(eV)
   0   2.0000      -9.987848      -271.7832
   1   2.0000      -9.987167      -271.7646
   2   2.0000      -0.706289       -19.2191
   3   2.0000      -0.536482       -14.5984
   4   2.0000      -0.428970       -11.6729
   5   2.0000      -0.379811       -10.3352
   6   2.0000      -0.321248        -8.7416
   7   2.0000      -0.247635        -6.7385
   8   0.0000      -0.029426        -0.8007
   9   0.0000       0.011134         0.3030
  10   0.0000       0.030110         0.8193
  11   0.0000       0.053191         1.4474
  12   0.0000       0.097667         2.6576

MULLIKEN ATOMIC CHARGES
-----------------------
   0 C :   -0.159349
   1 C :   -0.159329
   2 H :    0.079665
   3 H :    0.079669
   4 H :    0.079673
   5 H :    0.079670
Sum of atomic charges:    0.0000000

LOEWDIN ATOMIC CHARGES
----------------------
   0 C :    0.103597
   1 C :    0.103597
   2 H :   -0.051799
   3 H :   -0.051799
   4 H :   -0.051799
   5 H :   -0.051799

  Mayer bond orders larger than 0.100000
B(  0-C ,  1-C ) :   1.8273 B(  0-C ,  2-H ) :   1.0096 B(  0-C ,  3-H ) :   1.0096
B(  1-C ,  4-H ) :   1.0096 B(  1-C ,  5-H ) :   1.0096

Dispersion correction           -0.002845229
FINAL SINGLE POINT ENERGY       -78.637092787834

DIPOLE MOMENT
-------------
                                X             Y             Z
Electronic contribution:     -0.00000       0.00000      -0.00001
Nuclear contribution   :      0.00000       0.00000       0.00001
                        -----------------------------------------
Total Dipole Moment    :     -0.00000       0.00000       0.00000
                        -----------------------------------------
Magnitude (a.u.)       :      0.00000
Magnitude (Debye)      :      0.00001

Rotational constants in cm-1:     4.893731     1.002967     0.832372
Rotational constants in MHz : 146710.378489 30068.182911 24953.899728

                             ****ORCA TERMINATED NORMALLY****
TOTAL RUN TIME: 0 days 0 hours 0 minutes 2 seconds 948 msec
