                         Program Version 4.2.0 -  RELEASE  -
|  1> #
|  2> # MOR08_ed05 TPSS-D3BJ/Def2-TZVPPD
|  3> #
|  4> ! tpss d3bj def2-tzvppd def2/j grid4 nofinalgrid
|  5>
|  6> *xyz 0 1
|  7> Mn      -0.000015    0.000034   -0.156112
|  8> O       -2.966556    0.069032   -0.568565
|  9> C       -1.835048    0.042703   -0.376221
| 10> C        0.000106   -0.000266    1.691489
| 11> O        0.000196   -0.000501    2.842648
| 12> C        1.835004   -0.042558   -0.376374
| 13> O        2.966501   -0.068795   -0.568793
| 14> C        0.042608    1.834986   -0.376689
| 15> O        0.068875    2.966413   -0.569532
| 16> C       -0.042655   -1.834886   -0.377054
| 17> O       -0.068962   -2.966280   -0.570073
| 18> H       -0.000145    0.000318   -1.733571
| 19> *
| 20>
| 21> %maxcore 5000
| 22>
| 23> %pal
| 24> nprocs = 24
| 25> end
| 26>
| 27>
| 28>                          ****END OF INPUT****

CARTESIAN COORDINATES (ANGSTROEM)
---------------------------------
  Mn    -0.000015    0.000034   -0.156112
  O     -2.966556    0.069032   -0.568565
  C     -1.835048    0.042703   -0.376221
  C      0.000106   -0.000266    1.691489
  O      0.000196   -0.000501    2.842648
  C      1.835004   -0.042558   -0.376374
  O      2.966501   -0.068795   -0.568793
  C      0.042608    1.834986   -0.376689
  O      0.068875    2.966413   -0.569532
  C     -0.042655   -1.834886   -0.377054
  O     -0.068962   -2.966280   -0.570073
  H     -0.000145    0.000318   -1.733571

 Total Charge           Charge          ....    0
 Multiplicity           Mult            ....    1
 Number of Electrons    NEL             ....   96
 Basis Dimension        Dim             ....  469

ORBITAL ENERGIES
----------------

  NO   OCC          E(Eh)            E(eV)
   0   2.0000    -234.706525     -6386.6892
   1   2.0000     -27.001678      -734.7530
   2   2.0000     -23.095981      -628.4736
   3   2.0000     -23.095979      -628.4735
   4   2.0000     -23.090907      -628.3355
   5   2.0000     -18.981738      -516.5193
   6   2.0000     -18.981737      -516.5193
   7   2.0000     -18.981728      -516.5191
   8   2.0000     -18.981726      -516.5190
   9   2.0000     -18.971853      -516.2504
  10   2.0000     -10.120880      -275.4031
  11   2.0000     -10.120876      -275.4030
  12   2.0000     -10.120873      -275.4030
  13   2.0000     -10.120870      -275.4029
  14   2.0000     -10.109691      -275.0987
  15   2.0000      -3.070710       -83.5583
  16   2.0000      -1.959428       -53.3187
  17   2.0000      -1.959423       -53.3186
  18   2.0000      -1.947501       -52.9942
  19   2.0000      -1.084104       -29.5000
  20   2.0000      -1.083375       -29.4801
  21   2.0000      -1.083366       -29.4799
  22   2.0000      -1.082796       -29.4644
  23   2.0000      -1.072460       -29.1831
  24   2.0000      -0.579538       -15.7700
  25   2.0000      -0.534179       -14.5357
  26   2.0000      -0.534172       -14.5356
  27   2.0000      -0.529467       -14.4075
  28   2.0000      -0.526762       -14.3339
  29   2.0000      -0.466887       -12.7046
  30   2.0000      -0.452627       -12.3166
  31   2.0000      -0.442508       -12.0412
  32   2.0000      -0.442505       -12.0412
  33   2.0000      -0.441810       -12.0223
  34   2.0000      -0.439087       -11.9482
  35   2.0000      -0.439073       -11.9478
  36   2.0000      -0.429967       -11.7000
  37   2.0000      -0.424490       -11.5509
  38   2.0000      -0.421500       -11.4696
  39   2.0000      -0.420801       -11.4506
  40   2.0000      -0.420800       -11.4505
  41   2.0000      -0.411757       -11.2045
  42   2.0000      -0.390360       -10.6222
  43   2.0000      -0.390352       -10.6220
  44   2.0000      -0.296993        -8.0816
  45   2.0000      -0.262194        -7.1347
  46   2.0000      -0.246467        -6.7067
  47   2.0000      -0.246455        -6.7064
  48   0.0000      -0.081054        -2.2056
  49   0.0000      -0.081047        -2.2054
  50   0.0000      -0.073274        -1.9939
  51   0.0000      -0.070030        -1.9056
  52   0.0000      -0.067266        -1.8304

MULLIKEN ATOMIC CHARGES
-----------------------
   0 Mn:   -0.436010
   1 O :   -0.278473
   2 C :    0.409363
   3 C :    0.224499
   4 O :   -0.303741
   5 C :    0.408899
   6 O :   -0.278487
   7 C :    0.407536
   8 O :   -0.278533
   9 C :    0.408029
  10 O :   -0.278482
  11 H :   -0.004601
Sum of atomic charges:   -0.0000000

LOEWDIN ATOMIC CHARGES
----------------------
   0 Mn:   -0.403267
   1 O :    0.174333
   2 C :   -0.112570
   3 C :   -0.091628
   4 O :    0.155315
   5 C :   -0.112566
   6 O :    0.174333
   7 C :   -0.112594
   8 O :    0.174317
   9 C :   -0.112582
  10 O :    0.174319
  11 H :    0.092589

  Mayer bond orders larger than 0.100000
B(  0-Mn,  1-O ) :   0.1073 B(  0-Mn,  2-C ) :   1.0509 B(  0-Mn,  3-C ) :   1.1256
B(  0-Mn,  4-O ) :   0.1086 B(  0-Mn,  5-C ) :   1.0506 B(  0-Mn,  6-O ) :   0.1071
B(  0-Mn,  7-C ) :   1.0515 B(  0-Mn,  8-O ) :   0.1072 B(  0-Mn,  9-C ) :   1.0519
B(  0-Mn, 10-O ) :   0.1073 B(  0-Mn, 11-H ) :   0.7093 B(  1-O ,  2-C ) :   2.0167
B(  3-C ,  4-O ) :   1.9520 B(  5-C ,  6-O ) :   2.0169 B(  7-C ,  8-O ) :   2.0169
B(  9-C , 10-O ) :   2.0166

Dispersion correction           -0.018316100
FINAL SINGLE POINT ENERGY     -1718.786183340144

DIPOLE MOMENT
-------------
                                X             Y             Z
Electronic contribution:      0.00007      -0.00014       0.88894
Nuclear contribution   :     -0.00006       0.00014      -0.87929
                        -----------------------------------------
Total Dipole Moment    :      0.00000      -0.00001       0.00965
                        -----------------------------------------
Magnitude (a.u.)       :      0.00965
Magnitude (Debye)      :      0.02452

Rotational constants in cm-1:     0.030200     0.030198     0.023242
Rotational constants in MHz :   905.379927   905.310991   696.775514

                             ****ORCA TERMINATED NORMALLY****
TOTAL RUN TIME: 0 days 0 hours 0 minutes 10 seconds 279 msec
