                         Program Version 4.2.0 -  RELEASE  -
|  1> #
|  2> # MOR09_ed07 TPSS-D3BJ/Def2-TZVPPD
|  3> #
|  4> ! tpss d3bj def2-tzvppd def2/j grid4 nofinalgrid
|  5>
|  6> *xyz 0 1
|  7> W        0.102077    0.091078   -0.092267
|  8> C        0.117393   -1.847063   -0.698289
|  9> O        0.106421   -2.944423   -1.101491
| 10> C        0.053830    0.623127   -1.953542
| 11> O        0.062184    0.954188   -3.084324
| 12> C       -0.079789    2.065684    0.368043
| 13> O       -0.241835    3.206144    0.563164
| 14> P       -2.374272   -0.093775    0.152024
| 15> C       -2.924700   -0.636961    1.860300
| 16> H       -4.020662   -0.654132    1.869520
| 17> C       -3.301587    1.526034   -0.042070
| 18> H       -2.720709    2.174283    0.626552
| 19> C       -3.158465   -1.412689   -0.926528
| 20> H       -2.602719   -2.298136   -0.589541
| 21> C        3.533012   -1.160075   -0.926747
| 22> P        2.541683   -0.047968    0.198665
| 23> H        3.436930   -0.493420    2.480788
| 24> H        3.117150   -2.146572   -0.686664
| 25> C        3.597094    1.476716    0.423185
| 26> H        4.630625    1.133957    0.560412
| 27> C       -3.162167    2.103519   -1.458162
| 28> H       -3.455722    3.159421   -1.453162
| 29> H       -3.815975    1.580772   -2.162650
| 30> H       -2.136423    2.033109   -1.825887
| 31> C       -4.764402    1.570333    0.422322
| 32> H       -5.415801    0.983387   -0.229568
| 33> H       -5.116762    2.608723    0.390691
| 34> H       -4.893747    1.210688    1.447022
| 35> C       -4.655036   -1.682881   -0.716884
| 36> H       -4.925909   -1.790522    0.337405
| 37> H       -4.929224   -2.613829   -1.227923
| 38> H       -5.265149   -0.883893   -1.147063
| 39> C       -2.846467   -1.236186   -2.419424
| 40> H       -3.119249   -2.151958   -2.956758
| 41> H       -1.787229   -1.039228   -2.589757
| 42> H       -3.419310   -0.412085   -2.852792
| 43> C       -2.418211   -2.050160    2.179041
| 44> H       -2.879973   -2.804800    1.536232
| 45> H       -2.649558   -2.306479    3.219697
| 46> H       -1.332968   -2.120913    2.045449
| 47> C       -2.447309    0.375917    2.910548
| 48> H       -1.357998    0.484909    2.881372
| 49> H       -2.729985    0.039964    3.915237
| 50> H       -2.881675    1.366975    2.750689
| 51> C        5.039293   -1.175311   -0.637409
| 52> H        5.257150   -1.324613    0.425881
| 53> H        5.510398   -0.237807   -0.951034
| 54> H        5.518847   -1.987312   -1.196567
| 55> C        3.236493   -0.904929   -2.411567
| 56> H        3.640990    0.053418   -2.749243
| 57> C        1.267139   -0.464900    2.531536
| 58> H        2.161630   -0.902783   -2.603826
| 59> H        3.697388   -1.694627   -3.016368
| 60> C        2.697601   -2.411104    1.824913
| 61> H        0.411078   -0.840608    1.910182
| 62> H        1.101298   -0.955345    3.499474
| 63> H        1.182937    0.613220    2.672323
| 64> C        2.601288   -0.882352    1.885247
| 65> H        2.586441   -2.826896    2.833616
| 66> H        3.659680   -2.747270    1.429848
| 67> H        1.903309   -2.831808    1.199333
| 68> C        3.181998    2.276906    1.664687
| 69> H        2.135318    2.587016    1.600131
| 70> H        3.793597    3.184158    1.733044
| 71> H        3.324478    1.710719    2.590306
| 72> C        3.508784    2.354763   -0.833649
| 73> H        2.465553    2.610163   -1.046808
| 74> H        3.919372    1.854332   -1.714343
| 75> H        4.068793    3.284623   -0.679973
| 76> *
| 77>
| 78> %maxcore 5000
| 79>
| 80> %pal
| 81> nprocs = 24
| 82> end
| 83>
| 84>
| 85>                          ****END OF INPUT****

CARTESIAN COORDINATES (ANGSTROEM)
---------------------------------
  W      0.102077    0.091078   -0.092267
  C      0.117393   -1.847063   -0.698289
  O      0.106421   -2.944423   -1.101491
  C      0.053830    0.623127   -1.953542
  O      0.062184    0.954188   -3.084324
  C     -0.079789    2.065684    0.368043
  O     -0.241835    3.206144    0.563164
  P     -2.374272   -0.093775    0.152024
  C     -2.924700   -0.636961    1.860300
  H     -4.020662   -0.654132    1.869520
  C     -3.301587    1.526034   -0.042070
  H     -2.720709    2.174283    0.626552
  C     -3.158465   -1.412689   -0.926528
  H     -2.602719   -2.298136   -0.589541
  C      3.533012   -1.160075   -0.926747
  P      2.541683   -0.047968    0.198665
  H      3.436930   -0.493420    2.480788
  H      3.117150   -2.146572   -0.686664
  C      3.597094    1.476716    0.423185
  H      4.630625    1.133957    0.560412
  C     -3.162167    2.103519   -1.458162
  H     -3.455722    3.159421   -1.453162
  H     -3.815975    1.580772   -2.162650
  H     -2.136423    2.033109   -1.825887
  C     -4.764402    1.570333    0.422322
  H     -5.415801    0.983387   -0.229568
  H     -5.116762    2.608723    0.390691
  H     -4.893747    1.210688    1.447022
  C     -4.655036   -1.682881   -0.716884
  H     -4.925909   -1.790522    0.337405
  H     -4.929224   -2.613829   -1.227923
  H     -5.265149   -0.883893   -1.147063
  C     -2.846467   -1.236186   -2.419424
  H     -3.119249   -2.151958   -2.956758
  H     -1.787229   -1.039228   -2.589757
  H     -3.419310   -0.412085   -2.852792
  C     -2.418211   -2.050160    2.179041
  H     -2.879973   -2.804800    1.536232
  H     -2.649558   -2.306479    3.219697
  H     -1.332968   -2.120913    2.045449
  C     -2.447309    0.375917    2.910548
  H     -1.357998    0.484909    2.881372
  H     -2.729985    0.039964    3.915237
  H     -2.881675    1.366975    2.750689
  C      5.039293   -1.175311   -0.637409
  H      5.257150   -1.324613    0.425881
  H      5.510398   -0.237807   -0.951034
  H      5.518847   -1.987312   -1.196567
  C      3.236493   -0.904929   -2.411567
  H      3.640990    0.053418   -2.749243
  C      1.267139   -0.464900    2.531536
  H      2.161630   -0.902783   -2.603826
  H      3.697388   -1.694627   -3.016368
  C      2.697601   -2.411104    1.824913
  H      0.411078   -0.840608    1.910182
  H      1.101298   -0.955345    3.499474
  H      1.182937    0.613220    2.672323
  C      2.601288   -0.882352    1.885247
  H      2.586441   -2.826896    2.833616
  H      3.659680   -2.747270    1.429848
  H      1.903309   -2.831808    1.199333
  C      3.181998    2.276906    1.664687
  H      2.135318    2.587016    1.600131
  H      3.793597    3.184158    1.733044
  H      3.324478    1.710719    2.590306
  C      3.508784    2.354763   -0.833649
  H      2.465553    2.610163   -1.046808
  H      3.919372    1.854332   -1.714343
  H      4.068793    3.284623   -0.679973

 Total Charge           Charge          ....    0
 Multiplicity           Mult            ....    1
 Number of Electrons    NEL             ....  236
 Basis Dimension        Dim             .... 1766

ORBITAL ENERGIES
----------------

  NO   OCC          E(Eh)            E(eV)
   0   2.0000     -76.596081     -2084.2853
   1   2.0000     -76.593562     -2084.2168
   2   2.0000     -18.919693      -514.8310
   3   2.0000     -18.918739      -514.8051
   4   2.0000     -18.886340      -513.9234
   5   2.0000     -10.052037      -273.5298
   6   2.0000     -10.051942      -273.5272
   7   2.0000     -10.030287      -272.9380
   8   2.0000     -10.016788      -272.5707
   9   2.0000     -10.013296      -272.4756
  10   2.0000     -10.003118      -272.1987
  11   2.0000     -10.002586      -272.1842
  12   2.0000     -10.001101      -272.1438
  13   2.0000      -9.997040      -272.0333
  14   2.0000      -9.996636      -272.0223
  15   2.0000      -9.994914      -271.9754
  16   2.0000      -9.991170      -271.8735
  17   2.0000      -9.988480      -271.8004
  18   2.0000      -9.988156      -271.7915
  19   2.0000      -9.986737      -271.7529
  20   2.0000      -9.984152      -271.6826
  21   2.0000      -9.983243      -271.6578
  22   2.0000      -9.981211      -271.6026
  23   2.0000      -9.976999      -271.4880
  24   2.0000      -9.973107      -271.3820
  25   2.0000      -9.971183      -271.3297
  26   2.0000      -6.370699      -173.3555
  27   2.0000      -6.367138      -173.2586
  28   2.0000      -4.548456      -123.7698
  29   2.0000      -4.547741      -123.7503
  30   2.0000      -4.545452      -123.6880
  31   2.0000      -4.544673      -123.6668
  32   2.0000      -4.544542      -123.6633
  33   2.0000      -4.542006      -123.5943
  34   2.0000      -2.799018       -76.1652
  35   2.0000      -1.484373       -40.3918
  36   2.0000      -1.481890       -40.3243
  37   2.0000      -1.473313       -40.0909
  38   2.0000      -1.015275       -27.6270
  39   2.0000      -1.014128       -27.5958
  40   2.0000      -0.981147       -26.6984
  41   2.0000      -0.769046       -20.9268
  42   2.0000      -0.758557       -20.6414
  43   2.0000      -0.741409       -20.1748
  44   2.0000      -0.731430       -19.9032
  45   2.0000      -0.729346       -19.8465
  46   2.0000      -0.725333       -19.7373
  47   2.0000      -0.658438       -17.9170
  48   2.0000      -0.643630       -17.5141
  49   2.0000      -0.640388       -17.4259
  50   2.0000      -0.637653       -17.3514
  51   2.0000      -0.637408       -17.3448
  52   2.0000      -0.628373       -17.0989
  53   2.0000      -0.608065       -16.5463
  54   2.0000      -0.602005       -16.3814
  55   2.0000      -0.552561       -15.0360
  56   2.0000      -0.542215       -14.7544
  57   2.0000      -0.539542       -14.6817
  58   2.0000      -0.538900       -14.6642
  59   2.0000      -0.507646       -13.8137
  60   2.0000      -0.484996       -13.1974
  61   2.0000      -0.477411       -12.9910
  62   2.0000      -0.476720       -12.9722
  63   2.0000      -0.462270       -12.5790
  64   2.0000      -0.447455       -12.1759
  65   2.0000      -0.437374       -11.9016
  66   2.0000      -0.434231       -11.8160
  67   2.0000      -0.428547       -11.6613
  68   2.0000      -0.425967       -11.5912
  69   2.0000      -0.413753       -11.2588
  70   2.0000      -0.410546       -11.1715
  71   2.0000      -0.404908       -11.0181
  72   2.0000      -0.397327       -10.8118
  73   2.0000      -0.395561       -10.7638
  74   2.0000      -0.394761       -10.7420
  75   2.0000      -0.393025       -10.6948
  76   2.0000      -0.383581       -10.4378
  77   2.0000      -0.380245       -10.3470
  78   2.0000      -0.378485       -10.2991
  79   2.0000      -0.376712       -10.2509
  80   2.0000      -0.373832       -10.1725
  81   2.0000      -0.372504       -10.1364
  82   2.0000      -0.371174       -10.1002
  83   2.0000      -0.368625       -10.0308
  84   2.0000      -0.368071       -10.0157
  85   2.0000      -0.365574        -9.9478
  86   2.0000      -0.362443        -9.8626
  87   2.0000      -0.360285        -9.8038
  88   2.0000      -0.358990        -9.7686
  89   2.0000      -0.356246        -9.6939
  90   2.0000      -0.354712        -9.6522
  91   2.0000      -0.349458        -9.5092
  92   2.0000      -0.346784        -9.4365
  93   2.0000      -0.345770        -9.4089
  94   2.0000      -0.342522        -9.3205
  95   2.0000      -0.333714        -9.0808
  96   2.0000      -0.331594        -9.0231
  97   2.0000      -0.330344        -8.9891
  98   2.0000      -0.323781        -8.8105
  99   2.0000      -0.320955        -8.7336
 100   2.0000      -0.319956        -8.7064
 101   2.0000      -0.318517        -8.6673
 102   2.0000      -0.314048        -8.5457
 103   2.0000      -0.310425        -8.4471
 104   2.0000      -0.308590        -8.3972
 105   2.0000      -0.307000        -8.3539
 106   2.0000      -0.305539        -8.3141
 107   2.0000      -0.305150        -8.3036
 108   2.0000      -0.302067        -8.2197
 109   2.0000      -0.275085        -7.4854
 110   2.0000      -0.270306        -7.3554
 111   2.0000      -0.269024        -7.3205
 112   2.0000      -0.266731        -7.2581
 113   2.0000      -0.257214        -6.9992
 114   2.0000      -0.224376        -6.1056
 115   2.0000      -0.175385        -4.7725
 116   2.0000      -0.166631        -4.5343
 117   2.0000      -0.151648        -4.1265
 118   0.0000      -0.081358        -2.2139
 119   0.0000      -0.050249        -1.3674
 120   0.0000      -0.016089        -0.4378
 121   0.0000      -0.012601        -0.3429
 122   0.0000      -0.008967        -0.2440

MULLIKEN ATOMIC CHARGES
-----------------------
   0 W :   -3.724401
   1 C :    1.154388
   2 O :   -0.551622
   3 C :    1.667664
   4 O :   -0.650885
   5 C :    1.146461
   6 O :   -0.565757
   7 P :    0.591546
   8 C :    0.339082
   9 H :    0.240621
  10 C :    0.505861
  11 H :    0.153910
  12 C :    0.496796
  13 H :    0.204069
  14 C :    0.807032
  15 P :    0.072814
  16 H :    0.110037
  17 H :    0.263473
  18 C :    0.649633
  19 H :    0.223975
  20 C :   -0.584988
  21 H :    0.064932
  22 H :    0.128648
  23 H :    0.069960
  24 C :   -0.625392
  25 H :    0.086837
  26 H :    0.089194
  27 H :    0.121299
  28 C :   -0.678506
  29 H :    0.129780
  30 H :    0.076307
  31 H :    0.115183
  32 C :   -0.533191
  33 H :    0.065299
  34 H :    0.081301
  35 H :    0.121775
  36 C :   -0.693672
  37 H :    0.134424
  38 H :    0.078277
  39 H :    0.084595
  40 C :   -0.633683
  41 H :    0.041766
  42 H :    0.083970
  43 H :    0.166769
  44 C :   -0.746485
  45 H :    0.136990
  46 H :    0.134183
  47 H :    0.079350
  48 C :   -0.504717
  49 H :    0.077550
  50 C :   -0.922851
  51 H :    0.117642
  52 H :    0.060116
  53 C :   -0.715494
  54 H :    0.215895
  55 H :    0.101667
  56 H :    0.210456
  57 C :    0.948883
  58 H :    0.079058
  59 H :    0.102063
  60 H :    0.165180
  61 C :   -0.625713
  62 H :    0.121303
  63 H :    0.089698
  64 H :    0.103883
  65 C :   -0.667966
  66 H :    0.133102
  67 H :    0.097273
  68 H :    0.083351
Sum of atomic charges:   -0.0000000

LOEWDIN ATOMIC CHARGES
----------------------
   0 W :    0.351066
   1 C :   -0.297356
   2 O :    0.057293
   3 C :   -0.392178
   4 O :    0.028852
   5 C :   -0.290203
   6 O :    0.054942
   7 P :    1.050426
   8 C :   -0.368712
   9 H :   -0.030759
  10 C :   -0.348853
  11 H :   -0.038467
  12 C :   -0.348056
  13 H :   -0.033968
  14 C :   -0.352640
  15 P :    1.045277
  16 H :   -0.007866
  17 H :   -0.027037
  18 C :   -0.350902
  19 H :   -0.016356
  20 C :    0.130571
  21 H :   -0.005304
  22 H :   -0.023056
  23 H :   -0.041747
  24 C :    0.133431
  25 H :   -0.029089
  26 H :   -0.006190
  27 H :   -0.030193
  28 C :    0.131233
  29 H :   -0.027712
  30 H :   -0.006876
  31 H :   -0.026045
  32 C :    0.130137
  33 H :   -0.004736
  34 H :   -0.049650
  35 H :   -0.023800
  36 C :    0.123448
  37 H :   -0.021217
  38 H :   -0.008925
  39 H :   -0.036721
  40 C :    0.124038
  41 H :   -0.038605
  42 H :   -0.008246
  43 H :   -0.022127
  44 C :    0.120129
  45 H :   -0.021960
  46 H :   -0.017477
  47 H :   -0.007277
  48 C :    0.131258
  49 H :   -0.025377
  50 C :    0.074670
  51 H :   -0.042001
  52 H :   -0.006314
  53 C :    0.124642
  54 H :   -0.079237
  55 H :    0.007765
  56 H :   -0.034238
  57 C :   -0.335581
  58 H :   -0.006705
  59 H :   -0.022946
  60 H :   -0.023437
  61 C :    0.121280
  62 H :   -0.040028
  63 H :   -0.006320
  64 H :   -0.025986
  65 C :    0.130541
  66 H :   -0.020151
  67 H :   -0.033558
  68 H :   -0.008816

  Mayer bond orders larger than 0.100000
B(  0-W ,  1-C ) :   1.6061 B(  0-W ,  2-O ) :   0.1537 B(  0-W ,  3-C ) :   1.4064
B(  0-W ,  4-O ) :   0.2954 B(  0-W ,  5-C ) :   1.1227 B(  0-W ,  6-O ) :   0.2090
B(  0-W ,  8-C ) :   0.1224 B(  0-W , 10-C ) :   0.1715 B(  0-W , 15-P ) :   0.2483
B(  0-W , 18-C ) :   0.3229 B(  0-W , 19-H ) :  -0.1509 B(  0-W , 50-C ) :   0.5179
B(  1-C ,  2-O ) :   1.4576 B(  1-C ,  5-C ) :   0.3849 B(  1-C , 54-H ) :  -0.1116
B(  3-C ,  4-O ) :   1.3051 B(  3-C ,  5-C ) :   0.1660 B(  3-C , 15-P ) :   0.1951
B(  5-C ,  6-O ) :   1.5200 B(  5-C ,  7-P ) :   0.1682 B(  5-C , 14-C ) :  -0.1164
B(  7-P ,  8-C ) :   0.7099 B(  7-P , 10-C ) :   0.5817 B(  7-P , 12-C ) :   0.6711
B(  7-P , 15-P ) :  -0.1741 B(  7-P , 20-C ) :   0.1027 B(  7-P , 24-C ) :   0.1109
B(  7-P , 28-C ) :   0.1073 B(  7-P , 36-C ) :   0.1064 B(  7-P , 40-C ) :   0.1297
B(  7-P , 54-H ) :  -0.1027 B(  8-C ,  9-H ) :   0.7239 B(  8-C , 10-C ) :   0.4282
B(  8-C , 12-C ) :   0.4587 B(  8-C , 36-C ) :   0.7167 B(  8-C , 40-C ) :   0.7855
B( 10-C , 11-H ) :   0.7636 B( 10-C , 12-C ) :   0.3497 B( 10-C , 20-C ) :   0.7381
B( 10-C , 24-C ) :   0.6483 B( 10-C , 40-C ) :   0.1587 B( 12-C , 13-H ) :   0.7067
B( 12-C , 28-C ) :   0.6992 B( 12-C , 32-C ) :   0.7604 B( 12-C , 36-C ) :   0.2024
B( 14-C , 15-P ) :   0.3828 B( 14-C , 17-H ) :   0.7312 B( 14-C , 18-C ) :   0.2412
B( 14-C , 44-C ) :   0.6357 B( 14-C , 48-C ) :   0.6696 B( 14-C , 57-C ) :   0.2697
B( 14-C , 61-C ) :   0.1136 B( 15-P , 16-H ) :  -0.1254 B( 15-P , 17-H ) :   0.1000
B( 15-P , 18-C ) :   0.8159 B( 15-P , 19-H ) :   0.1245 B( 15-P , 44-C ) :   0.1104
B( 15-P , 48-C ) :   0.1599 B( 15-P , 50-C ) :   0.2839 B( 15-P , 53-C ) :   0.1165
B( 15-P , 57-C ) :   0.7897 B( 15-P , 61-C ) :   0.3401 B( 15-P , 62-H ) :   0.1034
B( 15-P , 65-C ) :   0.3487 B( 16-H , 57-C ) :   0.7830 B( 18-C , 19-H ) :   0.6868
B( 18-C , 44-C ) :   0.1016 B( 18-C , 57-C ) :   0.2806 B( 18-C , 61-C ) :   0.4610
B( 18-C , 65-C ) :   0.6264 B( 20-C , 21-H ) :   0.9116 B( 20-C , 22-H ) :   0.9775
B( 20-C , 23-H ) :   0.9932 B( 20-C , 24-C ) :   0.2297 B( 24-C , 25-H ) :   0.9718
B( 24-C , 26-H ) :   0.9909 B( 24-C , 27-H ) :   0.9334 B( 28-C , 29-H ) :   0.9164
B( 28-C , 30-H ) :   0.9834 B( 28-C , 31-H ) :   0.9688 B( 28-C , 32-C ) :   0.2223
B( 32-C , 33-H ) :   0.9087 B( 32-C , 34-H ) :   1.0001 B( 32-C , 35-H ) :   0.9602
B( 36-C , 37-H ) :   0.8803 B( 36-C , 38-H ) :   0.9453 B( 36-C , 39-H ) :   0.9966
B( 36-C , 40-C ) :   0.1609 B( 40-C , 41-H ) :   0.9824 B( 40-C , 42-H ) :   0.9404
B( 40-C , 43-H ) :   0.8737 B( 44-C , 45-H ) :   0.9725 B( 44-C , 46-H ) :   0.9826
B( 44-C , 47-H ) :   0.9716 B( 44-C , 48-C ) :   0.1943 B( 48-C , 49-H ) :   0.9548
B( 48-C , 51-H ) :   1.0383 B( 48-C , 52-H ) :   0.9383 B( 50-C , 53-C ) :   0.2504
B( 50-C , 54-H ) :   1.2624 B( 50-C , 55-H ) :   0.6973 B( 50-C , 56-H ) :   1.0102
B( 50-C , 57-C ) :   0.5683 B( 53-C , 57-C ) :   0.4931 B( 53-C , 58-H ) :   0.9694
B( 53-C , 59-H ) :   1.0045 B( 53-C , 60-H ) :   0.9794 B( 61-C , 62-H ) :   0.9788
B( 61-C , 63-H ) :   0.9353 B( 61-C , 64-H ) :   0.9932 B( 61-C , 65-C ) :   0.2083
B( 65-C , 66-H ) :   1.0172 B( 65-C , 67-H ) :   0.9577 B( 65-C , 68-H ) :   0.9409

Dispersion correction           -0.150287740
FINAL SINGLE POINT ENERGY     -1801.969536092133

DIPOLE MOMENT
-------------
                                X             Y             Z
Electronic contribution:     17.81020      16.10691     -20.07797
Nuclear contribution   :    -17.42159     -16.73751      21.91193
                        -----------------------------------------
Total Dipole Moment    :      0.38861      -0.63060       1.83396
                        -----------------------------------------
Magnitude (a.u.)       :      1.97790
Magnitude (Debye)      :      5.02741

Rotational constants in cm-1:     0.007992     0.003859     0.003786
Rotational constants in MHz :   239.602072   115.683770   113.510152

                             ****ORCA TERMINATED NORMALLY****
TOTAL RUN TIME: 0 days 0 hours 2 minutes 21 seconds 852 msec
