                         Program Version 4.2.0 -  RELEASE  -
|  1> #
|  2> # MOR07_ed01 TPSS-D3BJ/Def2-TZVPPD
|  3> #
|  4> ! tpss d3bj def2-tzvppd def2/j grid4 nofinalgrid
|  5>
|  6> *xyz 0 1
|  7> Cr      -0.000046    0.000041   -0.405569
|  8> O       -2.277907    2.043130   -0.317819
|  9> C       -1.422280    1.275470   -0.391359
| 10> C       -0.000325   -0.000192    1.429559
| 11> O       -0.000571   -0.000422    2.587655
| 12> C        1.422359   -1.275089   -0.391211
| 13> O        2.278285   -2.042429   -0.317709
| 14> C        1.275390    1.422211   -0.390822
| 15> O        2.043071    2.277781   -0.316760
| 16> C       -1.275267   -1.422351   -0.391135
| 17> O       -2.042647   -2.278220   -0.317434
| 18> *
| 19>
| 20> %maxcore 5000
| 21>
| 22> %pal
| 23> nprocs = 24
| 24> end
| 25>
| 26>
| 27>                          ****END OF INPUT****

CARTESIAN COORDINATES (ANGSTROEM)
---------------------------------
  Cr    -0.000046    0.000041   -0.405569
  O     -2.277907    2.043130   -0.317819
  C     -1.422280    1.275470   -0.391359
  C     -0.000325   -0.000192    1.429559
  O     -0.000571   -0.000422    2.587655
  C      1.422359   -1.275089   -0.391211
  O      2.278285   -2.042429   -0.317709
  C      1.275390    1.422211   -0.390822
  O      2.043071    2.277781   -0.316760
  C     -1.275267   -1.422351   -0.391135
  O     -2.042647   -2.278220   -0.317434

 Total Charge           Charge          ....    0
 Multiplicity           Mult            ....    1
 Number of Electrons    NEL             ....   94
 Basis Dimension        Dim             ....  452

ORBITAL ENERGIES
----------------

  NO   OCC          E(Eh)            E(eV)
   0   2.0000    -214.986996     -5850.0936
   1   2.0000     -24.401921      -664.0100
   2   2.0000     -20.709181      -563.5255
   3   2.0000     -20.709180      -563.5254
   4   2.0000     -20.708933      -563.5187
   5   2.0000     -18.976534      -516.3777
   6   2.0000     -18.976524      -516.3775
   7   2.0000     -18.976523      -516.3774
   8   2.0000     -18.976519      -516.3773
   9   2.0000     -18.953216      -515.7432
  10   2.0000     -10.108239      -275.0592
  11   2.0000     -10.108234      -275.0590
  12   2.0000     -10.108230      -275.0589
  13   2.0000     -10.108230      -275.0589
  14   2.0000     -10.094597      -274.6879
  15   2.0000      -2.781234       -75.6812
  16   2.0000      -1.755400       -47.7669
  17   2.0000      -1.753851       -47.7247
  18   2.0000      -1.753849       -47.7246
  19   2.0000      -1.075932       -29.2776
  20   2.0000      -1.075378       -29.2625
  21   2.0000      -1.075372       -29.2624
  22   2.0000      -1.074984       -29.2518
  23   2.0000      -1.052745       -28.6466
  24   2.0000      -0.564462       -15.3598
  25   2.0000      -0.527368       -14.3504
  26   2.0000      -0.527364       -14.3503
  27   2.0000      -0.524390       -14.2694
  28   2.0000      -0.512744       -13.9525
  29   2.0000      -0.452277       -12.3071
  30   2.0000      -0.440917       -11.9980
  31   2.0000      -0.435919       -11.8620
  32   2.0000      -0.435916       -11.8619
  33   2.0000      -0.432638       -11.7727
  34   2.0000      -0.429712       -11.6931
  35   2.0000      -0.429709       -11.6930
  36   2.0000      -0.422857       -11.5065
  37   2.0000      -0.415847       -11.3158
  38   2.0000      -0.412327       -11.2200
  39   2.0000      -0.406884       -11.0719
  40   2.0000      -0.406882       -11.0718
  41   2.0000      -0.389998       -10.6124
  42   2.0000      -0.377502       -10.2724
  43   2.0000      -0.377495       -10.2722
  44   2.0000      -0.233224        -6.3463
  45   2.0000      -0.224488        -6.1086
  46   2.0000      -0.224484        -6.1085
  47   0.0000      -0.158543        -4.3142
  48   0.0000      -0.079142        -2.1536
  49   0.0000      -0.079134        -2.1534
  50   0.0000      -0.069869        -1.9012
  51   0.0000      -0.046210        -1.2574

MULLIKEN ATOMIC CHARGES
-----------------------
   0 Cr:   -1.115946
   1 O :   -0.286408
   2 C :    0.512396
   3 C :    0.526714
   4 O :   -0.314825
   5 C :    0.512577
   6 O :   -0.286470
   7 C :    0.512267
   8 O :   -0.286397
   9 C :    0.512540
  10 O :   -0.286446
Sum of atomic charges:   -0.0000000

LOEWDIN ATOMIC CHARGES
----------------------
   0 Cr:   -0.187565
   1 O :    0.150455
   2 C :   -0.094879
   3 C :   -0.178927
   4 O :    0.144335
   5 C :   -0.094931
   6 O :    0.150461
   7 C :   -0.094937
   8 O :    0.150455
   9 C :   -0.094920
  10 O :    0.150454

  Mayer bond orders larger than 0.100000
B(  0-Cr,  1-O ) :   0.1216 B(  0-Cr,  2-C ) :   1.0340 B(  0-Cr,  3-C ) :   1.4502
B(  0-Cr,  4-O ) :   0.2045 B(  0-Cr,  5-C ) :   1.0341 B(  0-Cr,  6-O ) :   0.1217
B(  0-Cr,  7-C ) :   1.0340 B(  0-Cr,  8-O ) :   0.1216 B(  0-Cr,  9-C ) :   1.0340
B(  0-Cr, 10-O ) :   0.1217 B(  1-O ,  2-C ) :   2.0640 B(  3-C ,  4-O ) :   1.8847
B(  5-C ,  6-O ) :   2.0639 B(  7-C ,  8-O ) :   2.0639 B(  9-C , 10-O ) :   2.0639

Dispersion correction           -0.019661735
FINAL SINGLE POINT ENERGY     -1611.634341880257

DIPOLE MOMENT
-------------
                                X             Y             Z
Electronic contribution:     -0.00029       0.00030      -2.38300
Nuclear contribution   :      0.00017      -0.00015       1.50310
                        -----------------------------------------
Total Dipole Moment    :     -0.00011       0.00014      -0.87991
                        -----------------------------------------
Magnitude (a.u.)       :      0.87991
Magnitude (Debye)      :      2.23654

Rotational constants in cm-1:     0.031146     0.031144     0.021766
Rotational constants in MHz :   933.731625   933.679962   652.524637

                             ****ORCA TERMINATED NORMALLY****
TOTAL RUN TIME: 0 days 0 hours 0 minutes 9 seconds 46 msec
