                         Program Version 4.2.0 -  RELEASE  -
|  1> #
|  2> # MOR05_co TPSS-D3BJ/Def2-TZVPPD
|  3> #
|  4> ! tpss d3bj def2-tzvppd def2/j grid4 nofinalgrid
|  5>
|  6> *xyz 0 1
|  7> O        0.000000    0.000000    0.486237
|  8> C        0.000000    0.000000   -0.648315
|  9> *
| 10>
| 11> %maxcore 5000
| 12>
| 13> %pal
| 14> nprocs = 24
| 15> end
| 16>
| 17>
| 18>                          ****END OF INPUT****

CARTESIAN COORDINATES (ANGSTROEM)
---------------------------------
  O      0.000000    0.000000    0.486237
  C      0.000000    0.000000   -0.648315

 Total Charge           Charge          ....    0
 Multiplicity           Mult            ....    1
 Number of Electrons    NEL             ....   14
 Basis Dimension        Dim             ....   77

ORBITAL ENERGIES
----------------

  NO   OCC          E(Eh)            E(eV)
   0   2.0000     -18.989961      -516.7431
   1   2.0000     -10.101271      -274.8696
   2   2.0000      -1.092358       -29.7246
   3   2.0000      -0.527306       -14.3487
   4   2.0000      -0.434541       -11.8245
   5   2.0000      -0.434541       -11.8245
   6   2.0000      -0.340433        -9.2637
   7   0.0000      -0.068178        -1.8552
   8   0.0000      -0.068178        -1.8552
   9   0.0000       0.022882         0.6227
  10   0.0000       0.063592         1.7304
  11   0.0000       0.063862         1.7378

MULLIKEN ATOMIC CHARGES
-----------------------
   0 O :   -0.061830
   1 C :    0.061830
Sum of atomic charges:   -0.0000000

LOEWDIN ATOMIC CHARGES
----------------------
   0 O :    0.019345
   1 C :   -0.019345

  Mayer bond orders larger than 0.100000
B(  0-O ,  1-C ) :   2.3724

Dispersion correction           -0.000505710
FINAL SINGLE POINT ENERGY      -113.375475761953

DIPOLE MOMENT
-------------
                                X             Y             Z
Electronic contribution:      0.00000      -0.00000       0.06025
Nuclear contribution   :      0.00000       0.00000       0.00720
                        -----------------------------------------
Total Dipole Moment    :      0.00000      -0.00000       0.06744
                        -----------------------------------------
Magnitude (a.u.)       :      0.06744
Magnitude (Debye)      :      0.17142

Rotational constants in cm-1:     0.000000     1.908926     1.908926
Rotational constants in MHz :     0.000000 57228.174924 57228.174924

                             ****ORCA TERMINATED NORMALLY****
TOTAL RUN TIME: 0 days 0 hours 0 minutes 2 seconds 430 msec
