                         Program Version 4.2.0 -  RELEASE  -
|  1> #
|  2> # MOR04_c2h6 TPSS-D3BJ/Def2-TZVPPD
|  3> #
|  4> ! tpss d3bj def2-tzvppd def2/j grid4 nofinalgrid
|  5>
|  6> *xyz 0 1
|  7> C       -0.765850   -0.000004    0.000000
|  8> C        0.765850    0.000004    0.000000
|  9> H       -1.162381   -1.020936   -0.022850
| 10> H       -1.162409    0.530251   -0.872720
| 11> H       -1.162411    0.490675    0.895568
| 12> H        1.162410   -0.530239    0.872727
| 13> H        1.162411   -0.490686   -0.895561
| 14> H        1.162381    1.020936    0.022836
| 15> *
| 16>
| 17> %maxcore 5000
| 18>
| 19> %pal
| 20> nprocs = 24
| 21> end
| 22>
| 23>
| 24>                          ****END OF INPUT****

CARTESIAN COORDINATES (ANGSTROEM)
---------------------------------
  C     -0.765850   -0.000004    0.000000
  C      0.765850    0.000004    0.000000
  H     -1.162381   -1.020936   -0.022850
  H     -1.162409    0.530251   -0.872720
  H     -1.162411    0.490675    0.895568
  H      1.162410   -0.530239    0.872727
  H      1.162411   -0.490686   -0.895561
  H      1.162381    1.020936    0.022836

 Total Charge           Charge          ....    0
 Multiplicity           Mult            ....    1
 Number of Electrons    NEL             ....   18
 Basis Dimension        Dim             ....  176

ORBITAL ENERGIES
----------------

  NO   OCC          E(Eh)            E(eV)
   0   2.0000      -9.975777      -271.4547
   1   2.0000      -9.975660      -271.4515
   2   2.0000      -0.696223       -18.9452
   3   2.0000      -0.566583       -15.4175
   4   2.0000      -0.393621       -10.7110
   5   2.0000      -0.393618       -10.7109
   6   2.0000      -0.327853        -8.9213
   7   2.0000      -0.307306        -8.3622
   8   2.0000      -0.307303        -8.3621
   9   0.0000       0.003099         0.0843
  10   0.0000       0.028453         0.7742
  11   0.0000       0.063214         1.7201
  12   0.0000       0.063237         1.7208
  13   0.0000       0.087368         2.3774

MULLIKEN ATOMIC CHARGES
-----------------------
   0 C :   -0.126303
   1 C :   -0.126317
   2 H :    0.041955
   3 H :    0.042170
   4 H :    0.042182
   5 H :    0.042159
   6 H :    0.042192
   7 H :    0.041962
Sum of atomic charges:    0.0000000

LOEWDIN ATOMIC CHARGES
----------------------
   0 C :    0.085358
   1 C :    0.085358
   2 H :   -0.028456
   3 H :   -0.028451
   4 H :   -0.028451
   5 H :   -0.028451
   6 H :   -0.028451
   7 H :   -0.028456

  Mayer bond orders larger than 0.100000
B(  0-C ,  1-C ) :   0.9577 B(  0-C ,  2-H ) :   0.9992 B(  0-C ,  3-H ) :   0.9999
B(  0-C ,  4-H ) :   0.9998 B(  1-C ,  5-H ) :   0.9999 B(  1-C ,  6-H ) :   0.9998
B(  1-C ,  7-H ) :   0.9992

Dispersion correction           -0.003967589
FINAL SINGLE POINT ENERGY       -79.878096394603

DIPOLE MOMENT
-------------
                                X             Y             Z
Electronic contribution:     -0.00000      -0.00000      -0.00000
Nuclear contribution   :      0.00000       0.00000      -0.00000
                        -----------------------------------------
Total Dipole Moment    :      0.00000       0.00000      -0.00000
                        -----------------------------------------
Magnitude (a.u.)       :      0.00000
Magnitude (Debye)      :      0.00000

Rotational constants in cm-1:     2.672873     0.663298     0.663297
Rotational constants in MHz : 80130.723455 19885.185427 19885.132514

                             ****ORCA TERMINATED NORMALLY****
TOTAL RUN TIME: 0 days 0 hours 0 minutes 3 seconds 100 msec
