                         Program Version 4.2.0 -  RELEASE  -
|  1> #
|  2> # MOR06_cod TPSS-D3BJ/Def2-TZVPPD
|  3> #
|  4> ! tpss d3bj def2-tzvppd def2/j grid4 nofinalgrid
|  5>
|  6> *xyz 0 1
|  7> C        1.191389    1.227675   -0.516531
|  8> C        0.040474   -1.675611   -0.245785
|  9> C       -0.040358    1.675615   -0.245809
| 10> H        1.773340    1.813957   -1.228847
| 11> C       -1.191236   -1.227682   -0.516688
| 12> H        0.358706   -2.571437   -0.779467
| 13> H       -0.358419    2.571431   -0.779611
| 14> H       -1.772889   -1.813647   -1.229501
| 15> C       -1.080136    1.086431    0.676864
| 16> H       -1.767105    1.885380    0.980109
| 17> H       -0.630813    0.710792    1.597907
| 18> C        1.924335    0.021333    0.009175
| 19> H        2.698129    0.353800    0.719005
| 20> H        2.474959   -0.423127   -0.831863
| 21> C        1.079920   -1.086274    0.677130
| 22> H        0.630295   -0.710168    1.597840
| 23> H        1.766727   -1.885140    0.980948
| 24> C       -1.924342   -0.021538    0.009255
| 25> H       -2.697754   -0.354225    0.719400
| 26> H       -2.475456    0.422687   -0.831583
| 27> *
| 28>
| 29> %maxcore 5000
| 30>
| 31> %pal
| 32> nprocs = 24
| 33> end
| 34>
| 35>
| 36>                          ****END OF INPUT****

CARTESIAN COORDINATES (ANGSTROEM)
---------------------------------
  C      1.191389    1.227675   -0.516531
  C      0.040474   -1.675611   -0.245785
  C     -0.040358    1.675615   -0.245809
  H      1.773340    1.813957   -1.228847
  C     -1.191236   -1.227682   -0.516688
  H      0.358706   -2.571437   -0.779467
  H     -0.358419    2.571431   -0.779611
  H     -1.772889   -1.813647   -1.229501
  C     -1.080136    1.086431    0.676864
  H     -1.767105    1.885380    0.980109
  H     -0.630813    0.710792    1.597907
  C      1.924335    0.021333    0.009175
  H      2.698129    0.353800    0.719005
  H      2.474959   -0.423127   -0.831863
  C      1.079920   -1.086274    0.677130
  H      0.630295   -0.710168    1.597840
  H      1.766727   -1.885140    0.980948
  C     -1.924342   -0.021538    0.009255
  H     -2.697754   -0.354225    0.719400
  H     -2.475456    0.422687   -0.831583

 Total Charge           Charge          ....    0
 Multiplicity           Mult            ....    1
 Number of Electrons    NEL             ....   60
 Basis Dimension        Dim             ....  500

ORBITAL ENERGIES
----------------

  NO   OCC          E(Eh)            E(eV)
   0   2.0000      -9.989960      -271.8406
   1   2.0000      -9.989960      -271.8406
   2   2.0000      -9.986459      -271.7454
   3   2.0000      -9.986454      -271.7452
   4   2.0000      -9.979160      -271.5467
   5   2.0000      -9.979155      -271.5466
   6   2.0000      -9.977408      -271.4991
   7   2.0000      -9.977404      -271.4990
   8   2.0000      -0.766244       -20.8505
   9   2.0000      -0.718238       -19.5443
  10   2.0000      -0.711629       -19.3644
  11   2.0000      -0.633457       -17.2372
  12   2.0000      -0.618867       -16.8402
  13   2.0000      -0.546417       -14.8688
  14   2.0000      -0.492427       -13.3996
  15   2.0000      -0.474380       -12.9085
  16   2.0000      -0.436773       -11.8852
  17   2.0000      -0.409590       -11.1455
  18   2.0000      -0.399277       -10.8649
  19   2.0000      -0.394396       -10.7321
  20   2.0000      -0.377076       -10.2608
  21   2.0000      -0.361784        -9.8446
  22   2.0000      -0.333466        -9.0741
  23   2.0000      -0.332933        -9.0596
  24   2.0000      -0.322013        -8.7624
  25   2.0000      -0.297154        -8.0860
  26   2.0000      -0.283747        -7.7212
  27   2.0000      -0.275176        -7.4879
  28   2.0000      -0.215254        -5.8574
  29   2.0000      -0.212492        -5.7822
  30   0.0000      -0.017756        -0.4832
  31   0.0000      -0.012337        -0.3357
  32   0.0000      -0.002219        -0.0604
  33   0.0000       0.017768         0.4835
  34   0.0000       0.018261         0.4969

MULLIKEN ATOMIC CHARGES
-----------------------
   0 C :   -0.280181
   1 C :   -0.306528
   2 C :   -0.305839
   3 H :    0.093987
   4 C :   -0.279059
   5 H :    0.093101
   6 H :    0.092818
   7 H :    0.094111
   8 C :    0.144454
   9 H :   -0.057831
  10 H :    0.054480
  11 C :    0.205370
  12 H :    0.016450
  13 H :    0.036323
  14 C :    0.144510
  15 H :    0.054372
  16 H :   -0.057952
  17 C :    0.204375
  18 H :    0.016518
  19 H :    0.036522
Sum of atomic charges:    0.0000000

LOEWDIN ATOMIC CHARGES
----------------------
   0 C :    0.008032
   1 C :    0.013211
   2 C :    0.013237
   3 H :   -0.008010
   4 C :    0.008037
   5 H :   -0.006613
   6 H :   -0.006627
   7 H :   -0.008013
   8 C :   -0.019899
   9 H :    0.007327
  10 H :   -0.007055
  11 C :   -0.013756
  12 H :    0.013944
  13 H :    0.012799
  14 C :   -0.019883
  15 H :   -0.007049
  16 H :    0.007330
  17 C :   -0.013751
  18 H :    0.013953
  19 H :    0.012787

  Mayer bond orders larger than 0.100000
B(  0-C ,  2-C ) :   1.2896 B(  0-C ,  3-H ) :   1.0032 B(  0-C , 11-C ) :   1.1142
B(  1-C ,  4-C ) :   1.2847 B(  1-C ,  5-H ) :   1.0088 B(  1-C , 11-C ) :   0.2033
B(  1-C , 14-C ) :   1.0114 B(  1-C , 17-C ) :  -0.2017 B(  2-C ,  6-H ) :   1.0088
B(  2-C ,  8-C ) :   1.0102 B(  2-C , 11-C ) :  -0.2010 B(  2-C , 17-C ) :   0.2028
B(  4-C ,  7-H ) :   1.0038 B(  4-C , 17-C ) :   1.1150 B(  8-C ,  9-H ) :   1.0167
B(  8-C , 10-H ) :   0.9376 B(  8-C , 14-C ) :   0.2643 B(  8-C , 17-C ) :   0.8287
B( 11-C , 12-H ) :   0.9202 B( 11-C , 13-H ) :   0.8993 B( 11-C , 14-C ) :   0.8282
B( 14-C , 15-H ) :   0.9378 B( 14-C , 16-H ) :   1.0165 B( 17-C , 18-H ) :   0.9198
B( 17-C , 19-H ) :   0.8993

Dispersion correction           -0.025539344
FINAL SINGLE POINT ENERGY      -312.224666118642

DIPOLE MOMENT
-------------
                                X             Y             Z
Electronic contribution:      0.00031      -0.00032      -0.85205
Nuclear contribution   :     -0.00029       0.00032       0.95237
                        -----------------------------------------
Total Dipole Moment    :      0.00002      -0.00000       0.10032
                        -----------------------------------------
Magnitude (a.u.)       :      0.10032
Magnitude (Debye)      :      0.25500

Rotational constants in cm-1:     0.087291     0.074989     0.047810
Rotational constants in MHz :  2616.931187  2248.128417  1433.302108

                             ****ORCA TERMINATED NORMALLY****
TOTAL RUN TIME: 0 days 0 hours 0 minutes 10 seconds 568 msec
