                         Program Version 4.2.0 -  RELEASE  -
|  1> #
|  2> # MOR01_accl TPSS-D3BJ/Def2-TZVPPD
|  3> #
|  4> ! tpss d3bj def2-tzvppd def2/j grid4 nofinalgrid
|  5>
|  6> *xyz 0 1
|  7> C        1.306659   -1.017500   -0.000028
|  8> C        0.488515    0.240833   -0.000079
|  9> H        2.367301   -0.760167   -0.001300
| 10> H        1.052624   -1.613812   -0.881062
| 11> H        1.054555   -1.612076    0.882774
| 12> O        0.865971    1.367720    0.000018
| 13> Cl      -1.304312   -0.135041    0.000005
| 14> *
| 15>
| 16> %maxcore 5000
| 17>
| 18> %pal
| 19> nprocs = 24
| 20> end
| 21>
| 22>
| 23>                          ****END OF INPUT****

CARTESIAN COORDINATES (ANGSTROEM)
---------------------------------
  C      1.306659   -1.017500   -0.000028
  C      0.488515    0.240833   -0.000079
  H      2.367301   -0.760167   -0.001300
  H      1.052624   -1.613812   -0.881062
  H      1.054555   -1.612076    0.882774
  O      0.865971    1.367720    0.000018
  Cl    -1.304312   -0.135041    0.000005

 Total Charge           Charge          ....    0
 Multiplicity           Mult            ....    1
 Number of Electrons    NEL             ....   40
 Basis Dimension        Dim             ....  216

ORBITAL ENERGIES
----------------

  NO   OCC          E(Eh)            E(eV)
   0   2.0000    -100.994845     -2748.2094
   1   2.0000     -18.923634      -514.9383
   2   2.0000     -10.138206      -275.8746
   3   2.0000     -10.029373      -272.9131
   4   2.0000      -9.244794      -251.5636
   5   2.0000      -7.023049      -191.1069
   6   2.0000      -7.015202      -190.8933
   7   2.0000      -7.013659      -190.8514
   8   2.0000      -1.029867       -28.0241
   9   2.0000      -0.789718       -21.4893
  10   2.0000      -0.716016       -19.4838
  11   2.0000      -0.522408       -14.2154
  12   2.0000      -0.454214       -12.3598
  13   2.0000      -0.442155       -12.0317
  14   2.0000      -0.433900       -11.8070
  15   2.0000      -0.386927       -10.5288
  16   2.0000      -0.370528       -10.0826
  17   2.0000      -0.294281        -8.0078
  18   2.0000      -0.288550        -7.8518
  19   2.0000      -0.266688        -7.2569
  20   0.0000      -0.081531        -2.2186
  21   0.0000      -0.026753        -0.7280
  22   0.0000      -0.006810        -0.1853
  23   0.0000       0.026057         0.7091
  24   0.0000       0.034564         0.9405

MULLIKEN ATOMIC CHARGES
-----------------------
   0 C :   -0.092517
   1 C :    0.647627
   2 H :    0.018186
   3 H :    0.093918
   4 H :    0.093714
   5 O :   -0.392017
   6 Cl:   -0.368912
Sum of atomic charges:   -0.0000000

LOEWDIN ATOMIC CHARGES
----------------------
   0 C :    0.135339
   1 C :   -0.757045
   2 H :   -0.003484
   3 H :   -0.006331
   4 H :   -0.006240
   5 O :    0.079985
   6 Cl:    0.557775

  Mayer bond orders larger than 0.100000
B(  0-C ,  1-C ) :   1.0031 B(  0-C ,  2-H ) :   1.0167 B(  0-C ,  3-H ) :   0.9433
B(  0-C ,  4-H ) :   0.9431 B(  1-C ,  5-O ) :   1.8294 B(  1-C ,  6-Cl) :   0.6273
B(  5-O ,  6-Cl) :   0.1861

Dispersion correction           -0.005918568
FINAL SINGLE POINT ENERGY      -613.580786408059

DIPOLE MOMENT
-------------
                                X             Y             Z
Electronic contribution:     -5.48003       2.68190      -0.00032
Nuclear contribution   :      6.08095      -3.60915       0.00039
                        -----------------------------------------
Total Dipole Moment    :      0.60092      -0.92725       0.00006
                        -----------------------------------------
Magnitude (a.u.)       :      1.10494
Magnitude (Debye)      :      2.80854

Rotational constants in cm-1:     0.334975     0.160198     0.110601
Rotational constants in MHz : 10042.310181  4802.622935  3315.727154

                             ****ORCA TERMINATED NORMALLY****
TOTAL RUN TIME: 0 days 0 hours 0 minutes 3 seconds 680 msec
