                         Program Version 4.2.0 -  RELEASE  -
|  1> #
|  2> # MOR18_ed37 TPSS-D3BJ/Def2-TZVPPD
|  3> #
|  4> ! tpss d3bj def2-tzvppd def2/j grid4 nofinalgrid
|  5>
|  6> *xyz 0 1
|  7> Mo      -0.098072   -0.000113   -0.000040
|  8> O       -1.958568   -1.162297    2.254949
|  9> C       -1.292076   -0.726548    1.409379
| 10> C       -1.290510    1.584735   -0.075353
| 11> O       -1.955816    2.535729   -0.120716
| 12> C       -1.292074   -0.856985   -1.334180
| 13> O       -1.958517   -1.371361   -2.134397
| 14> C        1.772262   -1.255233   -0.664863
| 15> C        1.773533   -1.210923    0.743855
| 16> C        1.772126    0.051067    1.419259
| 17> C        1.773764    1.248901    0.676519
| 18> C        1.772513    1.202801   -0.754108
| 19> C        1.773865   -0.039338   -1.420099
| 20> H        1.752441   -2.209415   -1.178166
| 21> H        1.754475   -2.130485    1.316775
| 22> H        1.752160    0.083668    2.502258
| 23> H        1.754801    2.204840    1.186440
| 24> H        1.752821    2.124408   -1.323840
| 25> H        1.755108   -0.075692   -2.502938
| 26> *
| 27>
| 28> %maxcore 5000
| 29>
| 30> %pal
| 31> nprocs = 24
| 32> end
| 33>
| 34>
| 35>                          ****END OF INPUT****

CARTESIAN COORDINATES (ANGSTROEM)
---------------------------------
  Mo    -0.098072   -0.000113   -0.000040
  O     -1.958568   -1.162297    2.254949
  C     -1.292076   -0.726548    1.409379
  C     -1.290510    1.584735   -0.075353
  O     -1.955816    2.535729   -0.120716
  C     -1.292074   -0.856985   -1.334180
  O     -1.958517   -1.371361   -2.134397
  C      1.772262   -1.255233   -0.664863
  C      1.773533   -1.210923    0.743855
  C      1.772126    0.051067    1.419259
  C      1.773764    1.248901    0.676519
  C      1.772513    1.202801   -0.754108
  C      1.773865   -0.039338   -1.420099
  H      1.752441   -2.209415   -1.178166
  H      1.754475   -2.130485    1.316775
  H      1.752160    0.083668    2.502258
  H      1.754801    2.204840    1.186440
  H      1.752821    2.124408   -1.323840
  H      1.755108   -0.075692   -2.502938

 Total Charge           Charge          ....    0
 Multiplicity           Mult            ....    1
 Number of Electrons    NEL             ....   98
 Basis Dimension        Dim             ....  611

ORBITAL ENERGIES
----------------

  NO   OCC          E(Eh)            E(eV)
   0   2.0000     -18.930859      -515.1349
   1   2.0000     -18.930853      -515.1347
   2   2.0000     -18.930846      -515.1345
   3   2.0000     -10.069716      -274.0109
   4   2.0000     -10.069711      -274.0108
   5   2.0000     -10.069706      -274.0106
   6   2.0000     -10.043526      -273.2982
   7   2.0000     -10.043412      -273.2951
   8   2.0000     -10.043407      -273.2950
   9   2.0000     -10.042925      -273.2819
  10   2.0000     -10.042922      -273.2818
  11   2.0000     -10.042807      -273.2787
  12   2.0000      -2.450954       -66.6939
  13   2.0000      -1.492942       -40.6250
  14   2.0000      -1.479685       -40.2643
  15   2.0000      -1.479676       -40.2640
  16   2.0000      -1.028733       -27.9932
  17   2.0000      -1.028132       -27.9769
  18   2.0000      -1.028130       -27.9768
  19   2.0000      -0.845108       -22.9966
  20   2.0000      -0.742468       -20.2036
  21   2.0000      -0.742467       -20.2036
  22   2.0000      -0.600641       -16.3443
  23   2.0000      -0.600641       -16.3443
  24   2.0000      -0.528203       -14.3731
  25   2.0000      -0.505878       -13.7656
  26   2.0000      -0.490157       -13.3379
  27   2.0000      -0.490149       -13.3376
  28   2.0000      -0.466042       -12.6817
  29   2.0000      -0.444382       -12.0922
  30   2.0000      -0.435628       -11.8540
  31   2.0000      -0.435624       -11.8539
  32   2.0000      -0.411452       -11.1962
  33   2.0000      -0.395466       -10.7612
  34   2.0000      -0.391877       -10.6635
  35   2.0000      -0.391865       -10.6632
  36   2.0000      -0.383355       -10.4316
  37   2.0000      -0.383349       -10.4314
  38   2.0000      -0.376447       -10.2436
  39   2.0000      -0.369659       -10.0589
  40   2.0000      -0.369647       -10.0586
  41   2.0000      -0.358718        -9.7612
  42   2.0000      -0.353492        -9.6190
  43   2.0000      -0.353488        -9.6189
  44   2.0000      -0.305357        -8.3092
  45   2.0000      -0.305345        -8.3089
  46   2.0000      -0.195321        -5.3150
  47   2.0000      -0.195309        -5.3146
  48   2.0000      -0.195147        -5.3102
  49   0.0000      -0.082474        -2.2442
  50   0.0000      -0.082467        -2.2440
  51   0.0000      -0.041582        -1.1315
  52   0.0000      -0.041575        -1.1313
  53   0.0000      -0.028254        -0.7688

MULLIKEN ATOMIC CHARGES
-----------------------
   0 Mo:   -1.402581
   1 O :   -0.315445
   2 C :    0.561647
   3 C :    0.562146
   4 O :   -0.315541
   5 C :    0.560842
   6 O :   -0.315557
   7 C :    0.112792
   8 C :    0.089218
   9 C :    0.114667
  10 C :    0.091041
  11 C :    0.112867
  12 C :    0.092332
  13 H :    0.011984
  14 H :    0.004745
  15 H :    0.012756
  16 H :    0.004016
  17 H :    0.012506
  18 H :    0.005564
Sum of atomic charges:    0.0000000

LOEWDIN ATOMIC CHARGES
----------------------
   0 Mo:    0.721414
   1 O :    0.077466
   2 C :   -0.236151
   3 C :   -0.236193
   4 O :    0.077469
   5 C :   -0.236172
   6 O :    0.077454
   7 C :   -0.052051
   8 C :   -0.050854
   9 C :   -0.052110
  10 C :   -0.050891
  11 C :   -0.052095
  12 C :   -0.050877
  13 H :    0.010742
  14 H :    0.010443
  15 H :    0.010752
  16 H :    0.010450
  17 H :    0.010762
  18 H :    0.010444

  Mayer bond orders larger than 0.100000
B(  0-Mo,  1-O ) :   0.1178 B(  0-Mo,  2-C ) :   1.4740 B(  0-Mo,  3-C ) :   1.4743
B(  0-Mo,  4-O ) :   0.1179 B(  0-Mo,  5-C ) :   1.4734 B(  0-Mo,  6-O ) :   0.1179
B(  0-Mo,  7-C ) :   0.4622 B(  0-Mo,  8-C ) :   0.4735 B(  0-Mo,  9-C ) :   0.4622
B(  0-Mo, 10-C ) :   0.4722 B(  0-Mo, 11-C ) :   0.4632 B(  0-Mo, 12-C ) :   0.4727
B(  1-O ,  2-C ) :   1.8642 B(  3-C ,  4-O ) :   1.8638 B(  5-C ,  6-O ) :   1.8643
B(  7-C ,  8-C ) :   1.0159 B(  7-C ,  9-C ) :  -0.1179 B(  7-C , 11-C ) :  -0.1182
B(  7-C , 12-C ) :   0.8348 B(  7-C , 13-H ) :   1.0943 B(  8-C ,  9-C ) :   0.8345
B(  8-C , 10-C ) :  -0.1190 B(  8-C , 12-C ) :  -0.1204 B(  8-C , 14-H ) :   1.1009
B(  9-C , 10-C ) :   1.0114 B(  9-C , 11-C ) :  -0.1187 B(  9-C , 15-H ) :   1.0955
B( 10-C , 11-C ) :   0.8380 B( 10-C , 12-C ) :  -0.1198 B( 10-C , 16-H ) :   1.1013
B( 11-C , 12-C ) :   1.0119 B( 11-C , 17-H ) :   1.0953 B( 12-C , 18-H ) :   1.1004

Dispersion correction           -0.034462470
FINAL SINGLE POINT ENERGY      -640.947760047775

DIPOLE MOMENT
-------------
                                X             Y             Z
Electronic contribution:    -11.12339      -0.00590      -0.00264
Nuclear contribution   :     13.46160       0.00506       0.00283
                        -----------------------------------------
Total Dipole Moment    :      2.33821      -0.00084       0.00018
                        -----------------------------------------
Magnitude (a.u.)       :      2.33821
Magnitude (Debye)      :      5.94325

Rotational constants in cm-1:     0.028916     0.021584     0.021580
Rotational constants in MHz :   866.875127   647.065472   646.965216

                             ****ORCA TERMINATED NORMALLY****
TOTAL RUN TIME: 0 days 0 hours 0 minutes 17 seconds 578 msec
