                         Program Version 4.2.0 -  RELEASE  -
|  1> #
|  2> # MOR12_ed18 TPSS-D3BJ/Def2-TZVPPD
|  3> #
|  4> ! tpss d3bj def2-tzvppd def2/j grid4 nofinalgrid
|  5>
|  6> *xyz 0 1
|  7> Ir       0.000009    0.119441   -0.001134
|  8> P        2.313164   -0.026854    0.000864
|  9> C        3.266155    1.538041    0.001301
| 10> C        2.990776   -0.938546    1.437922
| 11> H        4.076753   -1.056364    1.355244
| 12> H        4.080827   -1.059585   -1.345638
| 13> H        2.508332   -1.918605    1.474823
| 14> H        2.511934   -1.920062   -1.470843
| 15> H        3.000883    2.123603    0.885753
| 16> H        2.748975   -0.395301    2.355327
| 17> C        2.995346   -0.940504   -1.432774
| 18> H        4.343510    1.342437    0.003886
| 19> H        2.757870   -0.397739   -2.351580
| 20> H        3.004825    2.121649   -0.885628
| 21> P       -2.313239   -0.026297    0.000821
| 22> C       -3.266059    1.538685   -0.001751
| 23> C       -2.995240   -0.942628   -1.431183
| 24> H       -2.509974   -1.915937    1.477317
| 25> H       -4.077346   -1.051885    1.357522
| 26> H       -2.748166   -0.391240    2.356043
| 27> C       -2.991181   -0.935299    1.439450
| 28> H       -2.510085   -1.921339   -1.468610
| 29> H       -4.080420   -1.063528   -1.342825
| 30> H       -4.343438    1.343207   -0.001601
| 31> H       -3.002541    2.121837   -0.888321
| 32> H       -2.759672   -0.400400   -2.350803
| 33> H       -3.002807    2.124611    0.883073
| 34> C        0.000649    1.940082   -0.001490
| 35> O        0.001240    3.110505   -0.001979
| 36> Cl      -0.000683   -2.266357   -0.002005
| 37> *
| 38>
| 39> %maxcore 5000
| 40>
| 41> %pal
| 42> nprocs = 24
| 43> end
| 44>
| 45>
| 46>                          ****END OF INPUT****

CARTESIAN COORDINATES (ANGSTROEM)
---------------------------------
  Ir     0.000009    0.119441   -0.001134
  P      2.313164   -0.026854    0.000864
  C      3.266155    1.538041    0.001301
  C      2.990776   -0.938546    1.437922
  H      4.076753   -1.056364    1.355244
  H      4.080827   -1.059585   -1.345638
  H      2.508332   -1.918605    1.474823
  H      2.511934   -1.920062   -1.470843
  H      3.000883    2.123603    0.885753
  H      2.748975   -0.395301    2.355327
  C      2.995346   -0.940504   -1.432774
  H      4.343510    1.342437    0.003886
  H      2.757870   -0.397739   -2.351580
  H      3.004825    2.121649   -0.885628
  P     -2.313239   -0.026297    0.000821
  C     -3.266059    1.538685   -0.001751
  C     -2.995240   -0.942628   -1.431183
  H     -2.509974   -1.915937    1.477317
  H     -4.077346   -1.051885    1.357522
  H     -2.748166   -0.391240    2.356043
  C     -2.991181   -0.935299    1.439450
  H     -2.510085   -1.921339   -1.468610
  H     -4.080420   -1.063528   -1.342825
  H     -4.343438    1.343207   -0.001601
  H     -3.002541    2.121837   -0.888321
  H     -2.759672   -0.400400   -2.350803
  H     -3.002807    2.124611    0.883073
  C      0.000649    1.940082   -0.001490
  O      0.001240    3.110505   -0.001979
  Cl    -0.000683   -2.266357   -0.002005

 Total Charge           Charge          ....    0
 Multiplicity           Mult            ....    1
 Number of Electrons    NEL             ....  132
 Basis Dimension        Dim             ....  811

ORBITAL ENERGIES
----------------

  NO   OCC          E(Eh)            E(eV)
   0   2.0000    -100.924986     -2746.3085
   1   2.0000     -76.613630     -2084.7629
   2   2.0000     -76.613621     -2084.7626
   3   2.0000     -18.914419      -514.6875
   4   2.0000     -10.062265      -273.8081
   5   2.0000      -9.997040      -272.0333
   6   2.0000      -9.997038      -272.0332
   7   2.0000      -9.991586      -271.8849
   8   2.0000      -9.991576      -271.8846
   9   2.0000      -9.991572      -271.8845
  10   2.0000      -9.991536      -271.8835
  11   2.0000      -9.174730      -249.6571
  12   2.0000      -6.950028      -189.1199
  13   2.0000      -6.946250      -189.0171
  14   2.0000      -6.945548      -188.9980
  15   2.0000      -6.386965      -173.7982
  16   2.0000      -6.386957      -173.7979
  17   2.0000      -4.564524      -124.2070
  18   2.0000      -4.564516      -124.2068
  19   2.0000      -4.564219      -124.1987
  20   2.0000      -4.564210      -124.1985
  21   2.0000      -4.562017      -124.1388
  22   2.0000      -4.562007      -124.1385
  23   2.0000      -3.555226       -96.7426
  24   2.0000      -1.942580       -52.8603
  25   2.0000      -1.930279       -52.5256
  26   2.0000      -1.899172       -51.6791
  27   2.0000      -1.011653       -27.5285
  28   2.0000      -0.726670       -19.7737
  29   2.0000      -0.723919       -19.6988
  30   2.0000      -0.689794       -18.7702
  31   2.0000      -0.654567       -17.8117
  32   2.0000      -0.653918       -17.7940
  33   2.0000      -0.650626       -17.7044
  34   2.0000      -0.650595       -17.7036
  35   2.0000      -0.519339       -14.1319
  36   2.0000      -0.502492       -13.6735
  37   2.0000      -0.499040       -13.5796
  38   2.0000      -0.418582       -11.3902
  39   2.0000      -0.414991       -11.2925
  40   2.0000      -0.404990       -11.0203
  41   2.0000      -0.404402       -11.0043
  42   2.0000      -0.401294       -10.9198
  43   2.0000      -0.401290       -10.9196
  44   2.0000      -0.398437       -10.8420
  45   2.0000      -0.388214       -10.5638
  46   2.0000      -0.378297       -10.2940
  47   2.0000      -0.375921       -10.2293
  48   2.0000      -0.375688       -10.2230
  49   2.0000      -0.373695       -10.1688
  50   2.0000      -0.366280        -9.9670
  51   2.0000      -0.360570        -9.8116
  52   2.0000      -0.360356        -9.8058
  53   2.0000      -0.326601        -8.8873
  54   2.0000      -0.317206        -8.6316
  55   2.0000      -0.315261        -8.5787
  56   2.0000      -0.314543        -8.5592
  57   2.0000      -0.312681        -8.5085
  58   2.0000      -0.275178        -7.4880
  59   2.0000      -0.270065        -7.3488
  60   2.0000      -0.255828        -6.9614
  61   2.0000      -0.235208        -6.4003
  62   2.0000      -0.204679        -5.5696
  63   2.0000      -0.198829        -5.4104
  64   2.0000      -0.194231        -5.2853
  65   2.0000      -0.171734        -4.6731
  66   0.0000      -0.051287        -1.3956
  67   0.0000      -0.018989        -0.5167
  68   0.0000      -0.010465        -0.2848
  69   0.0000      -0.009841        -0.2678
  70   0.0000      -0.006398        -0.1741

MULLIKEN ATOMIC CHARGES
-----------------------
   0 Ir:   -0.094874
   1 P :    0.385363
   2 C :   -0.365711
   3 C :   -0.304175
   4 H :    0.157686
   5 H :    0.157503
   6 H :    0.146633
   7 H :    0.146409
   8 H :    0.114515
   9 H :    0.067160
  10 C :   -0.304014
  11 H :    0.133851
  12 H :    0.066852
  13 H :    0.114506
  14 P :    0.384858
  15 C :   -0.365547
  16 C :   -0.304109
  17 H :    0.146178
  18 H :    0.157737
  19 H :    0.067415
  20 C :   -0.303702
  21 H :    0.146872
  22 H :    0.157408
  23 H :    0.133815
  24 H :    0.114559
  25 H :    0.066636
  26 H :    0.114408
  27 C :    0.239656
  28 O :   -0.524324
  29 Cl:   -0.653566
Sum of atomic charges:   -0.0000000

LOEWDIN ATOMIC CHARGES
----------------------
   0 Ir:    0.380719
   1 P :    0.701565
   2 C :   -0.018249
   3 C :   -0.023197
   4 H :   -0.049355
   5 H :   -0.049344
   6 H :   -0.081182
   7 H :   -0.081271
   8 H :   -0.050364
   9 H :   -0.052871
  10 C :   -0.023163
  11 H :   -0.049710
  12 H :   -0.052850
  13 H :   -0.050299
  14 P :    0.701536
  15 C :   -0.018243
  16 C :   -0.023283
  17 H :   -0.081004
  18 H :   -0.049362
  19 H :   -0.052900
  20 C :   -0.023144
  21 H :   -0.081612
  22 H :   -0.049342
  23 H :   -0.049713
  24 H :   -0.050345
  25 H :   -0.052824
  26 H :   -0.050331
  27 C :   -0.525970
  28 O :    0.017804
  29 Cl:   -0.111696

  Mayer bond orders larger than 0.100000
B(  0-Ir,  1-P ) :   0.7724 B(  0-Ir, 14-P ) :   0.7716 B(  0-Ir, 27-C ) :   1.9070
B(  0-Ir, 28-O ) :   0.2226 B(  0-Ir, 29-Cl) :   0.3990 B(  1-P ,  2-C ) :   0.8887
B(  1-P ,  3-C ) :   0.9545 B(  1-P , 10-C ) :   0.9554 B(  1-P , 29-Cl) :   0.2273
B(  2-C ,  8-H ) :   0.9731 B(  2-C , 11-H ) :   0.9807 B(  2-C , 13-H ) :   0.9731
B(  3-C ,  4-H ) :   0.9562 B(  3-C ,  6-H ) :   0.9458 B(  3-C ,  9-H ) :   0.9984
B(  5-H , 10-C ) :   0.9563 B(  7-H , 10-C ) :   0.9457 B( 10-C , 12-H ) :   0.9984
B( 14-P , 15-C ) :   0.8889 B( 14-P , 16-C ) :   0.9552 B( 14-P , 20-C ) :   0.9546
B( 14-P , 29-Cl) :   0.2278 B( 15-C , 23-H ) :   0.9807 B( 15-C , 24-H ) :   0.9731
B( 15-C , 26-H ) :   0.9730 B( 16-C , 21-H ) :   0.9456 B( 16-C , 22-H ) :   0.9564
B( 16-C , 25-H ) :   0.9986 B( 17-H , 20-C ) :   0.9458 B( 18-H , 20-C ) :   0.9561
B( 19-H , 20-C ) :   0.9983 B( 27-C , 28-O ) :   1.7142

Dispersion correction           -0.054644593
FINAL SINGLE POINT ENERGY     -1600.667151796129

DIPOLE MOMENT
-------------
                                X             Y             Z
Electronic contribution:      0.00108      15.98374      -0.17786
Nuclear contribution   :     -0.00090     -15.69990       0.18198
                        -----------------------------------------
Total Dipole Moment    :      0.00018       0.28384       0.00411
                        -----------------------------------------
Magnitude (a.u.)       :      0.28387
Magnitude (Debye)      :      0.72153

Rotational constants in cm-1:     0.025294     0.012430     0.009680
Rotational constants in MHz :   758.298673   372.651784   290.199928

                             ****ORCA TERMINATED NORMALLY****
TOTAL RUN TIME: 0 days 0 hours 0 minutes 30 seconds 490 msec
