                         Program Version 4.2.0 -  RELEASE  -
|  1> #
|  2> # MOR10_ed09 TPSS-D3BJ/Def2-TZVPPD
|  3> #
|  4> ! tpss d3bj def2-tzvppd def2/j grid4 nofinalgrid
|  5>
|  6> *xyz 0 1
|  7> C        0.808995    0.630455    2.540471
|  8> C        1.251846    1.095590    1.293526
|  9> C        1.383898    2.476779    1.093534
| 10> C        1.096273    3.369549    2.123624
| 11> C        0.674512    2.896605    3.366402
| 12> C        0.527691    1.524549    3.571013
| 13> P        1.574642   -0.069667   -0.082699
| 14> C        2.832960    0.843508   -1.058615
| 15> C        2.470614    1.376098   -2.300811
| 16> C        3.389175    2.120533   -3.040434
| 17> C        4.677141    2.329565   -2.547864
| 18> C        5.047172    1.790502   -1.313611
| 19> C        4.129605    1.051595   -0.570111
| 20> Rh      -0.002604   -0.796146   -1.344377
| 21> Cl       1.074079   -1.834200   -3.101706
| 22> P       -1.622228   -0.075877   -0.088018
| 23> C       -1.803842    1.702415    0.297126
| 24> C       -2.229632    2.223789    1.521581
| 25> C       -2.349352    3.604004    1.692487
| 26> C       -2.048907    4.471915    0.644369
| 27> C       -1.606201    3.958746   -0.577355
| 28> C       -1.475459    2.583893   -0.746478
| 29> C       -3.062543   -0.419252   -1.169366
| 30> C       -3.141320   -1.718422   -1.702099
| 31> C       -4.157899   -2.054399   -2.592475
| 32> C       -5.110047   -1.100127   -2.955969
| 33> C       -5.041177    0.189383   -2.426273
| 34> C       -4.021006    0.532927   -1.539475
| 35> C       -2.066176   -1.000166    1.430207
| 36> C       -1.181452   -1.986758    1.882501
| 37> C       -1.497950   -2.762866    2.997043
| 38> C       -2.708929   -2.565810    3.661246
| 39> C       -3.611118   -1.604929    3.197782
| 40> C       -3.296146   -0.830428    2.082866
| 41> C        2.526762   -1.412838    0.731905
| 42> C        3.276788   -1.210573    1.900876
| 43> C        4.004905   -2.259926    2.460546
| 44> C        3.996021   -3.518658    1.858231
| 45> C        3.258939   -3.724012    0.690924
| 46> C        2.525229   -2.679846    0.130400
| 47> H       -2.400862   -2.462118   -1.411221
| 48> H       -4.205196   -3.058543   -3.003745
| 49> H       -5.903513   -1.360959   -3.650464
| 50> H       -5.783053    0.932397   -2.706210
| 51> H       -3.967070    1.539632   -1.137031
| 52> H       -2.450107    1.557807    2.348608
| 53> H       -2.671735    3.999637    2.651651
| 54> H       -2.145762    5.545320    0.781176
| 55> H       -1.354424    4.630618   -1.393167
| 56> H       -1.106831    2.171328   -1.683412
| 57> H       -0.254747   -2.145782    1.334840
| 58> H       -0.803470   -3.525000    3.339550
| 59> H       -2.958943   -3.170852    4.528281
| 60> H       -4.564895   -1.467934    3.699990
| 61> H       -4.014311   -0.106909    1.706849
| 62> H        3.285372   -0.236670    2.380292
| 63> H        4.578140   -2.092663    3.368393
| 64> H        4.561493   -4.335782    2.297848
| 65> H        3.251715   -4.700268    0.214323
| 66> H        1.950377   -2.830532   -0.780423
| 67> H        1.471910    1.178524   -2.682000
| 68> H        3.101239    2.524675   -4.006836
| 69> H        5.396289    2.901586   -3.127755
| 70> H        6.053788    1.939891   -0.932858
| 71> H        4.425922    0.628717    0.384972
| 72> H        1.719088    2.850389    0.131432
| 73> H        1.199114    4.437105    1.952609
| 74> H        0.454504    3.594780    4.169138
| 75> H        0.193294    1.146402    4.533186
| 76> H        0.698101   -0.433995    2.712341
| 77> *
| 78>
| 79> %maxcore 5000
| 80>
| 81> %pal
| 82> nprocs = 24
| 83> end
| 84>
| 85>
| 86>                          ****END OF INPUT****

CARTESIAN COORDINATES (ANGSTROEM)
---------------------------------
  C      0.808995    0.630455    2.540471
  C      1.251846    1.095590    1.293526
  C      1.383898    2.476779    1.093534
  C      1.096273    3.369549    2.123624
  C      0.674512    2.896605    3.366402
  C      0.527691    1.524549    3.571013
  P      1.574642   -0.069667   -0.082699
  C      2.832960    0.843508   -1.058615
  C      2.470614    1.376098   -2.300811
  C      3.389175    2.120533   -3.040434
  C      4.677141    2.329565   -2.547864
  C      5.047172    1.790502   -1.313611
  C      4.129605    1.051595   -0.570111
  Rh    -0.002604   -0.796146   -1.344377
  Cl     1.074079   -1.834200   -3.101706
  P     -1.622228   -0.075877   -0.088018
  C     -1.803842    1.702415    0.297126
  C     -2.229632    2.223789    1.521581
  C     -2.349352    3.604004    1.692487
  C     -2.048907    4.471915    0.644369
  C     -1.606201    3.958746   -0.577355
  C     -1.475459    2.583893   -0.746478
  C     -3.062543   -0.419252   -1.169366
  C     -3.141320   -1.718422   -1.702099
  C     -4.157899   -2.054399   -2.592475
  C     -5.110047   -1.100127   -2.955969
  C     -5.041177    0.189383   -2.426273
  C     -4.021006    0.532927   -1.539475
  C     -2.066176   -1.000166    1.430207
  C     -1.181452   -1.986758    1.882501
  C     -1.497950   -2.762866    2.997043
  C     -2.708929   -2.565810    3.661246
  C     -3.611118   -1.604929    3.197782
  C     -3.296146   -0.830428    2.082866
  C      2.526762   -1.412838    0.731905
  C      3.276788   -1.210573    1.900876
  C      4.004905   -2.259926    2.460546
  C      3.996021   -3.518658    1.858231
  C      3.258939   -3.724012    0.690924
  C      2.525229   -2.679846    0.130400
  H     -2.400862   -2.462118   -1.411221
  H     -4.205196   -3.058543   -3.003745
  H     -5.903513   -1.360959   -3.650464
  H     -5.783053    0.932397   -2.706210
  H     -3.967070    1.539632   -1.137031
  H     -2.450107    1.557807    2.348608
  H     -2.671735    3.999637    2.651651
  H     -2.145762    5.545320    0.781176
  H     -1.354424    4.630618   -1.393167
  H     -1.106831    2.171328   -1.683412
  H     -0.254747   -2.145782    1.334840
  H     -0.803470   -3.525000    3.339550
  H     -2.958943   -3.170852    4.528281
  H     -4.564895   -1.467934    3.699990
  H     -4.014311   -0.106909    1.706849
  H      3.285372   -0.236670    2.380292
  H      4.578140   -2.092663    3.368393
  H      4.561493   -4.335782    2.297848
  H      3.251715   -4.700268    0.214323
  H      1.950377   -2.830532   -0.780423
  H      1.471910    1.178524   -2.682000
  H      3.101239    2.524675   -4.006836
  H      5.396289    2.901586   -3.127755
  H      6.053788    1.939891   -0.932858
  H      4.425922    0.628717    0.384972
  H      1.719088    2.850389    0.131432
  H      1.199114    4.437105    1.952609
  H      0.454504    3.594780    4.169138
  H      0.193294    1.146402    4.533186
  H      0.698101   -0.433995    2.712341

 Total Charge           Charge          ....    0
 Multiplicity           Mult            ....    1
 Number of Electrons    NEL             ....  310
 Basis Dimension        Dim             .... 2045

ORBITAL ENERGIES
----------------

  NO   OCC          E(Eh)            E(eV)
   0   2.0000    -100.907069     -2745.8209
   1   2.0000     -76.623557     -2085.0330
   2   2.0000     -76.614280     -2084.7805
   3   2.0000     -10.004300      -272.2308
   4   2.0000     -10.004007      -272.2229
   5   2.0000     -10.003921      -272.2205
   6   2.0000     -10.003902      -272.2200
   7   2.0000     -10.002691      -272.1871
   8   2.0000     -10.002585      -272.1842
   9   2.0000     -10.001491      -272.1544
  10   2.0000     -10.001028      -272.1418
  11   2.0000     -10.000763      -272.1346
  12   2.0000      -9.999838      -272.1094
  13   2.0000      -9.999828      -272.1092
  14   2.0000      -9.999680      -272.1051
  15   2.0000      -9.999665      -272.1047
  16   2.0000      -9.999331      -272.0956
  17   2.0000      -9.999247      -272.0933
  18   2.0000      -9.999162      -272.0910
  19   2.0000      -9.999016      -272.0870
  20   2.0000      -9.998974      -272.0859
  21   2.0000      -9.998590      -272.0755
  22   2.0000      -9.998245      -272.0661
  23   2.0000      -9.998111      -272.0624
  24   2.0000      -9.997751      -272.0526
  25   2.0000      -9.997605      -272.0487
  26   2.0000      -9.997154      -272.0364
  27   2.0000      -9.997096      -272.0348
  28   2.0000      -9.996139      -272.0088
  29   2.0000      -9.996080      -272.0072
  30   2.0000      -9.995499      -271.9914
  31   2.0000      -9.995353      -271.9874
  32   2.0000      -9.993984      -271.9501
  33   2.0000      -9.992812      -271.9182
  34   2.0000      -9.991779      -271.8901
  35   2.0000      -9.991567      -271.8844
  36   2.0000      -9.989709      -271.8338
  37   2.0000      -9.989513      -271.8285
  38   2.0000      -9.988989      -271.8142
  39   2.0000      -9.156586      -249.1634
  40   2.0000      -6.931166      -188.6066
  41   2.0000      -6.928405      -188.5315
  42   2.0000      -6.927900      -188.5178
  43   2.0000      -6.394332      -173.9986
  44   2.0000      -6.386815      -173.7941
  45   2.0000      -4.571939      -124.4088
  46   2.0000      -4.571742      -124.4034
  47   2.0000      -4.569843      -124.3517
  48   2.0000      -4.564487      -124.2060
  49   2.0000      -4.564182      -124.1977
  50   2.0000      -4.561819      -124.1334
  51   2.0000      -3.076863       -83.7257
  52   2.0000      -1.875509       -51.0352
  53   2.0000      -1.875017       -51.0218
  54   2.0000      -1.838281       -50.0222
  55   2.0000      -0.811181       -22.0733
  56   2.0000      -0.806591       -21.9485
  57   2.0000      -0.803066       -21.8525
  58   2.0000      -0.800341       -21.7784
  59   2.0000      -0.797810       -21.7095
  60   2.0000      -0.794696       -21.6248
  61   2.0000      -0.727579       -19.7984
  62   2.0000      -0.723140       -19.6776
  63   2.0000      -0.702264       -19.1096
  64   2.0000      -0.702197       -19.1078
  65   2.0000      -0.699705       -19.0399
  66   2.0000      -0.698298       -19.0016
  67   2.0000      -0.695584       -18.9278
  68   2.0000      -0.695112       -18.9150
  69   2.0000      -0.694065       -18.8865
  70   2.0000      -0.692236       -18.8367
  71   2.0000      -0.690512       -18.7898
  72   2.0000      -0.688639       -18.7388
  73   2.0000      -0.668357       -18.1869
  74   2.0000      -0.612708       -16.6726
  75   2.0000      -0.608156       -16.5488
  76   2.0000      -0.570643       -15.5280
  77   2.0000      -0.568632       -15.4733
  78   2.0000      -0.567229       -15.4351
  79   2.0000      -0.562836       -15.3155
  80   2.0000      -0.560827       -15.2609
  81   2.0000      -0.557373       -15.1669
  82   2.0000      -0.555953       -15.1283
  83   2.0000      -0.554937       -15.1006
  84   2.0000      -0.553092       -15.0504
  85   2.0000      -0.548103       -14.9146
  86   2.0000      -0.522979       -14.2310
  87   2.0000      -0.517879       -14.0922
  88   2.0000      -0.483881       -13.1671
  89   2.0000      -0.483386       -13.1536
  90   2.0000      -0.479989       -13.0612
  91   2.0000      -0.475767       -12.9463
  92   2.0000      -0.464333       -12.6351
  93   2.0000      -0.460066       -12.5190
  94   2.0000      -0.424971       -11.5640
  95   2.0000      -0.423618       -11.5272
  96   2.0000      -0.421755       -11.4765
  97   2.0000      -0.421295       -11.4640
  98   2.0000      -0.419197       -11.4069
  99   2.0000      -0.414746       -11.2858
 100   2.0000      -0.413140       -11.2421
 101   2.0000      -0.410890       -11.1809
 102   2.0000      -0.410608       -11.1732
 103   2.0000      -0.410391       -11.1673
 104   2.0000      -0.406968       -11.0742
 105   2.0000      -0.404439       -11.0054
 106   2.0000      -0.392374       -10.6770
 107   2.0000      -0.390516       -10.6265
 108   2.0000      -0.388663       -10.5761
 109   2.0000      -0.386880       -10.5275
 110   2.0000      -0.385097       -10.4790
 111   2.0000      -0.383034       -10.4229
 112   2.0000      -0.380250       -10.3471
 113   2.0000      -0.377525       -10.2730
 114   2.0000      -0.374406       -10.1881
 115   2.0000      -0.368494       -10.0272
 116   2.0000      -0.359195        -9.7742
 117   2.0000      -0.348365        -9.4795
 118   2.0000      -0.345135        -9.3916
 119   2.0000      -0.343509        -9.3474
 120   2.0000      -0.339106        -9.2275
 121   2.0000      -0.337909        -9.1950
 122   2.0000      -0.333219        -9.0673
 123   2.0000      -0.327418        -8.9095
 124   2.0000      -0.319868        -8.7041
 125   2.0000      -0.316024        -8.5994
 126   2.0000      -0.314757        -8.5650
 127   2.0000      -0.313835        -8.5399
 128   2.0000      -0.312809        -8.5120
 129   2.0000      -0.310614        -8.4522
 130   2.0000      -0.307118        -8.3571
 131   2.0000      -0.305228        -8.3057
 132   2.0000      -0.297531        -8.0962
 133   2.0000      -0.296692        -8.0734
 134   2.0000      -0.293252        -7.9798
 135   2.0000      -0.292691        -7.9645
 136   2.0000      -0.263412        -7.1678
 137   2.0000      -0.253956        -6.9105
 138   2.0000      -0.247147        -6.7252
 139   2.0000      -0.245954        -6.6927
 140   2.0000      -0.243633        -6.6296
 141   2.0000      -0.240768        -6.5516
 142   2.0000      -0.238366        -6.4863
 143   2.0000      -0.237317        -6.4577
 144   2.0000      -0.236213        -6.4277
 145   2.0000      -0.234895        -6.3918
 146   2.0000      -0.232160        -6.3174
 147   2.0000      -0.229272        -6.2388
 148   2.0000      -0.226120        -6.1530
 149   2.0000      -0.225441        -6.1346
 150   2.0000      -0.220589        -6.0025
 151   2.0000      -0.186531        -5.0758
 152   2.0000      -0.183248        -4.9864
 153   2.0000      -0.167250        -4.5511
 154   2.0000      -0.151715        -4.1284
 155   0.0000      -0.087758        -2.3880
 156   0.0000      -0.067362        -1.8330
 157   0.0000      -0.062505        -1.7009
 158   0.0000      -0.061352        -1.6695
 159   0.0000      -0.055681        -1.5152

MULLIKEN ATOMIC CHARGES
-----------------------
   0 C :    0.572490
   1 C :   -0.089771
   2 C :   -0.059823
   3 C :   -0.362454
   4 C :   -0.189444
   5 C :   -0.703847
   6 P :    3.124655
   7 C :   -0.519994
   8 C :    0.107760
   9 C :   -0.400516
  10 C :   -0.111588
  11 C :   -0.481384
  12 C :    0.082647
  13 Rh:   -1.756329
  14 Cl:   -0.626968
  15 P :    1.958603
  16 C :    0.560472
  17 C :   -0.177198
  18 C :   -0.402237
  19 C :   -0.139340
  20 C :   -0.385810
  21 C :    0.125396
  22 C :    0.806313
  23 C :   -0.302241
  24 C :   -0.504478
  25 C :   -0.131765
  26 C :   -0.378999
  27 C :   -0.204728
  28 C :    0.125005
  29 C :   -0.679476
  30 C :   -0.186475
  31 C :   -0.178046
  32 C :   -0.389962
  33 C :    0.080304
  34 C :    0.031093
  35 C :    0.262242
  36 C :   -0.614331
  37 C :   -0.183731
  38 C :   -0.402513
  39 C :   -0.054400
  40 H :    0.009290
  41 H :    0.053534
  42 H :    0.086622
  43 H :    0.058769
  44 H :    0.246815
  45 H :    0.277334
  46 H :   -0.054500
  47 H :    0.000256
  48 H :   -0.002229
  49 H :   -0.171498
  50 H :    0.480880
  51 H :    0.044992
  52 H :    0.077786
  53 H :    0.055221
  54 H :    0.167279
  55 H :    0.240284
  56 H :    0.049093
  57 H :    0.089793
  58 H :    0.055011
  59 H :    0.053294
  60 H :    0.083658
  61 H :    0.058154
  62 H :    0.092416
  63 H :    0.061123
  64 H :    0.225600
  65 H :    0.140009
  66 H :   -0.038019
  67 H :    0.027136
  68 H :    0.004100
  69 H :    0.308666
Sum of atomic charges:   -0.0000000

LOEWDIN ATOMIC CHARGES
----------------------
   0 C :   -0.020796
   1 C :   -0.302956
   2 C :    0.010460
   3 C :    0.024229
   4 C :    0.015967
   5 C :    0.027491
   6 P :    0.884662
   7 C :   -0.304178
   8 C :   -0.033226
   9 C :    0.025719
  10 C :    0.018340
  11 C :    0.023292
  12 C :    0.013598
  13 Rh:    0.108851
  14 Cl:   -0.141696
  15 P :    0.886606
  16 C :   -0.314917
  17 C :    0.005085
  18 C :    0.019699
  19 C :    0.017361
  20 C :    0.023765
  21 C :   -0.029100
  22 C :   -0.293872
  23 C :   -0.017973
  24 C :    0.025551
  25 C :    0.019677
  26 C :    0.022992
  27 C :    0.010986
  28 C :   -0.294006
  29 C :   -0.025812
  30 C :    0.027496
  31 C :    0.021137
  32 C :    0.025015
  33 C :   -0.006852
  34 C :   -0.297022
  35 C :   -0.017635
  36 C :    0.022995
  37 C :    0.018213
  38 C :    0.027724
  39 C :   -0.015001
  40 H :   -0.011698
  41 H :    0.001816
  42 H :   -0.001832
  43 H :   -0.000619
  44 H :   -0.006142
  45 H :   -0.010971
  46 H :    0.002362
  47 H :   -0.001550
  48 H :    0.000916
  49 H :   -0.007905
  50 H :   -0.031480
  51 H :    0.002075
  52 H :   -0.001821
  53 H :   -0.000527
  54 H :    0.003795
  55 H :   -0.004783
  56 H :   -0.001133
  57 H :   -0.002450
  58 H :    0.001369
  59 H :   -0.078814
  60 H :   -0.046808
  61 H :    0.000302
  62 H :   -0.002616
  63 H :   -0.001556
  64 H :   -0.007231
  65 H :    0.002426
  66 H :    0.003807
  67 H :    0.000120
  68 H :    0.003391
  69 H :   -0.014314

  Mayer bond orders larger than 0.100000
B(  0-C ,  1-C ) :   1.0045 B(  0-C ,  2-C ) :   0.1595 B(  0-C ,  5-C ) :   1.0231
B(  0-C ,  7-C ) :  -0.1321 B(  0-C , 28-C ) :   0.1014 B(  0-C , 69-H ) :   0.9131
B(  1-C ,  2-C ) :   0.9893 B(  1-C ,  3-C ) :  -0.2977 B(  1-C ,  5-C ) :  -0.1875
B(  1-C ,  6-P ) :   0.7549 B(  1-C ,  7-C ) :   0.4822 B(  1-C , 12-C ) :   0.1143
B(  1-C , 13-Rh) :   0.1331 B(  1-C , 15-P ) :   0.3727 B(  1-C , 16-C ) :  -0.1108
B(  1-C , 28-C ) :  -0.1489 B(  1-C , 34-C ) :   0.2720 B(  1-C , 35-C ) :   0.1049
B(  1-C , 69-H ) :  -0.1774 B(  2-C ,  3-C ) :   1.4041 B(  2-C ,  5-C ) :   0.1118
B(  2-C ,  6-P ) :  -0.2865 B(  2-C ,  7-C ) :   0.1377 B(  2-C , 65-H ) :   0.9538
B(  3-C ,  4-C ) :   1.2655 B(  3-C , 66-H ) :   1.1325 B(  4-C ,  5-C ) :   1.2429
B(  4-C , 67-H ) :   1.0961 B(  5-C , 39-C ) :  -0.1352 B(  5-C , 68-H ) :   1.2022
B(  6-P ,  7-C ) :   0.4526 B(  6-P ,  8-C ) :  -0.1413 B(  6-P , 12-C ) :  -0.4549
B(  6-P , 13-Rh) :   0.1339 B(  6-P , 14-Cl) :  -1.2453 B(  6-P , 15-P ) :  -0.4021
B(  6-P , 22-C ) :   0.3051 B(  6-P , 34-C ) :   0.1847 B(  6-P , 35-C ) :   0.2780
B(  6-P , 39-C ) :   0.1310 B(  6-P , 50-H ) :   0.1323 B(  6-P , 55-H ) :   0.1105
B(  7-C ,  8-C ) :   0.9459 B(  7-C ,  9-C ) :  -0.1342 B(  7-C , 11-C ) :  -0.1056
B(  7-C , 12-C ) :   1.1147 B(  7-C , 13-Rh) :   0.2238 B(  7-C , 15-P ) :   0.1110
B(  7-C , 34-C ) :   0.9976 B(  7-C , 35-C ) :  -0.4992 B(  8-C ,  9-C ) :   1.2333
B(  8-C , 12-C ) :   0.1274 B(  8-C , 14-Cl) :   0.1363 B(  8-C , 39-C ) :   0.1159
B(  8-C , 60-H ) :   0.9487 B(  9-C , 10-C ) :   1.2028 B(  9-C , 61-H ) :   1.1031
B( 10-C , 11-C ) :   1.2109 B( 10-C , 62-H ) :   1.0524 B( 11-C , 12-C ) :   1.2471
B( 11-C , 63-H ) :   1.1104 B( 12-C , 35-C ) :   0.3642 B( 12-C , 39-C ) :  -0.1338
B( 12-C , 64-H ) :   0.9137 B( 13-Rh, 14-Cl) :   1.6975 B( 13-Rh, 15-P ) :   0.3871
B( 13-Rh, 21-C ) :   0.2416 B( 13-Rh, 29-C ) :   0.1648 B( 13-Rh, 34-C ) :   0.3337
B( 13-Rh, 35-C ) :  -0.1241 B( 13-Rh, 39-C ) :   0.1442 B( 13-Rh, 49-H ) :   0.1531
B( 14-Cl, 60-H ) :   0.1395 B( 15-P , 16-C ) :   0.4849 B( 15-P , 21-C ) :   0.3358
B( 15-P , 22-C ) :  -0.2398 B( 15-P , 23-C ) :  -0.2797 B( 15-P , 24-C ) :  -0.1325
B( 15-P , 27-C ) :  -0.3789 B( 15-P , 28-C ) :   1.3105 B( 15-P , 29-C ) :  -0.1852
B( 15-P , 33-C ) :  -0.3396 B( 16-C , 17-C ) :   0.9412 B( 16-C , 18-C ) :  -0.3598
B( 16-C , 19-C ) :  -0.1203 B( 16-C , 20-C ) :  -0.2754 B( 16-C , 21-C ) :   1.0790
B( 16-C , 22-C ) :   0.2903 B( 16-C , 27-C ) :   0.1029 B( 16-C , 28-C ) :   0.3837
B( 16-C , 49-H ) :  -0.2022 B( 17-C , 18-C ) :   1.3922 B( 17-C , 20-C ) :   0.1163
B( 17-C , 22-C ) :  -0.1261 B( 17-C , 28-C ) :   0.1180 B( 17-C , 33-C ) :   0.1183
B( 17-C , 45-H ) :   0.8129 B( 18-C , 19-C ) :   1.2599 B( 18-C , 46-H ) :   1.1832
B( 19-C , 20-C ) :   1.3307 B( 19-C , 47-H ) :   1.1172 B( 20-C , 21-C ) :   1.1716
B( 20-C , 48-H ) :   1.1648 B( 21-C , 33-C ) :   0.1058 B( 21-C , 49-H ) :   1.0820
B( 22-C , 23-C ) :   0.5209 B( 22-C , 24-C ) :  -0.2277 B( 22-C , 26-C ) :  -0.1960
B( 22-C , 27-C ) :   1.0758 B( 22-C , 28-C ) :   0.2638 B( 22-C , 29-C ) :   0.3253
B( 22-C , 40-H ) :  -0.2715 B( 23-C , 24-C ) :   1.4893 B( 23-C , 27-C ) :   0.1068
B( 23-C , 28-C ) :   0.1901 B( 23-C , 33-C ) :   0.1337 B( 23-C , 40-H ) :   1.1775
B( 24-C , 25-C ) :   1.2322 B( 24-C , 41-H ) :   1.1039 B( 25-C , 26-C ) :   1.2287
B( 25-C , 42-H ) :   1.0547 B( 26-C , 27-C ) :   1.2694 B( 26-C , 43-H ) :   1.0976
B( 27-C , 44-H ) :   0.9795 B( 28-C , 29-C ) :   0.5863 B( 28-C , 30-C ) :  -0.1087
B( 28-C , 32-C ) :  -0.3210 B( 28-C , 33-C ) :   0.5870 B( 29-C , 30-C ) :   1.2424
B( 29-C , 33-C ) :   0.4367 B( 29-C , 50-H ) :   0.8339 B( 30-C , 31-C ) :   1.2118
B( 30-C , 51-H ) :   1.0779 B( 31-C , 32-C ) :   1.2803 B( 31-C , 52-H ) :   1.0826
B( 32-C , 33-C ) :   1.4884 B( 32-C , 53-H ) :   1.1058 B( 33-C , 54-H ) :   0.9126
B( 34-C , 35-C ) :   0.6014 B( 34-C , 36-C ) :  -0.2075 B( 34-C , 38-C ) :  -0.1753
B( 34-C , 39-C ) :   1.0711 B( 34-C , 55-H ) :  -0.1114 B( 35-C , 36-C ) :   1.1425
B( 35-C , 39-C ) :   0.3607 B( 35-C , 55-H ) :   1.0066 B( 36-C , 37-C ) :   1.2567
B( 36-C , 56-H ) :   1.1684 B( 37-C , 38-C ) :   1.2437 B( 37-C , 57-H ) :   1.0638
B( 38-C , 39-C ) :   1.2411 B( 38-C , 58-H ) :   1.1259 B( 39-C , 59-H ) :   1.0861
B( 39-C , 69-H ) :   0.1099

Dispersion correction           -0.180871806
FINAL SINGLE POINT ENERGY     -2644.518814080513

DIPOLE MOMENT
-------------
                                X             Y             Z
Electronic contribution:      2.26194     -60.73944    -102.26153
Nuclear contribution   :     -3.11357      62.05191     104.48164
                        -----------------------------------------
Total Dipole Moment    :     -0.85163       1.31247       2.22011
                        -----------------------------------------
Magnitude (a.u.)       :      2.71601
Magnitude (Debye)      :      6.90355

Rotational constants in cm-1:     0.003240     0.002395     0.002360
Rotational constants in MHz :    97.140326    71.802021    70.757797

                             ****ORCA TERMINATED NORMALLY****
TOTAL RUN TIME: 0 days 0 hours 2 minutes 50 seconds 316 msec
