                         Program Version 4.2.0 -  RELEASE  -
|  1> #
|  2> # MOR13_ed24 TPSS-D3BJ/Def2-TZVPPD
|  3> #
|  4> ! tpss d3bj def2-tzvppd def2/j grid4 nofinalgrid
|  5>
|  6> *xyz 0 1
|  7> Ru       0.947158   -0.829727   -0.745491
|  8> Cl       0.759536   -0.029843   -2.889353
|  9> Cl       0.924249   -2.813196    0.406526
| 10> P       -0.892858    0.059346    0.070519
| 11> C        2.105770    0.298407    0.120511
| 12> C       -1.060848    0.304387    1.904454
| 13> C       -0.839571   -1.004781    2.681683
| 14> C       -1.204393   -0.821649    4.161076
| 15> C       -0.398097    0.318884    4.794081
| 16> C       -0.569062    1.619286    3.999752
| 17> C       -0.203235    1.422010    2.520494
| 18> C       -1.361193    1.675223   -0.723442
| 19> C       -0.190670    2.668218   -0.863157
| 20> C       -0.617010    3.874515   -1.709852
| 21> C       -1.846047    4.572418   -1.115292
| 22> C       -3.005112    3.584426   -0.940399
| 23> C       -2.585621    2.369196   -0.098214
| 24> C       -2.266825   -1.149912   -0.318948
| 25> C       -3.572387   -1.071522    0.495585
| 26> C       -4.464103   -2.278800    0.161919
| 27> C       -4.771803   -2.353480   -1.338652
| 28> C       -3.481398   -2.368379   -2.166970
| 29> C       -2.587234   -1.168835   -1.825450
| 30> H        1.784946    1.202955    0.645761
| 31> H       -2.115821    0.600966    2.014947
| 32> H        0.212402   -1.294098    2.586311
| 33> H       -1.418447   -1.824644    2.245913
| 34> H       -1.028300   -1.758851    4.701667
| 35> H       -2.278352   -0.600113    4.247046
| 36> H        0.665500    0.042496    4.804792
| 37> H       -0.699682    0.468438    5.837587
| 38> H        0.050942    2.415093    4.429614
| 39> H       -1.613622    1.955784    4.068877
| 40> H       -0.334942    2.362910    1.978268
| 41> H        0.854749    1.145201    2.447640
| 42> H       -1.618911    1.357234   -1.743817
| 43> H        0.662106    2.166051   -1.325328
| 44> H        0.125060    3.019280    0.127484
| 45> H       -0.846735    3.527698   -2.726710
| 46> H        0.219033    4.578695   -1.795316
| 47> H       -2.156025    5.410629   -1.750528
| 48> H       -1.583038    4.996180   -0.135073
| 49> H       -3.336384    3.234608   -1.928191
| 50> H       -3.864727    4.078543   -0.471441
| 51> H       -2.338056    2.702879    0.918040
| 52> H       -3.425897    1.674720   -0.010060
| 53> H       -1.782812   -2.105972   -0.070582
| 54> H       -4.113822   -0.149509    0.251918
| 55> H       -3.369403   -1.053503    1.570362
| 56> H       -5.393534   -2.221008    0.741223
| 57> H       -3.947864   -3.196972    0.475160
| 58> H       -5.374229   -1.479434   -1.625752
| 59> H       -5.376744   -3.241409   -1.557196
| 60> H       -3.714322   -2.363052   -3.238224
| 61> H       -2.925851   -3.294401   -1.964642
| 62> H       -1.666731   -1.193589   -2.417765
| 63> H       -3.111760   -0.241279   -2.093787
| 64> C        3.546496    0.126586    0.028364
| 65> C        4.389877    1.228237    0.286046
| 66> C        5.770146    1.113346    0.161104
| 67> C        6.339467   -0.106460   -0.212258
| 68> C        5.519417   -1.212931   -0.453677
| 69> C        4.139965   -1.102236   -0.332827
| 70> H        3.943201    2.177101    0.573360
| 71> H        6.405205    1.972855    0.357301
| 72> H        5.961339   -2.166857   -0.726887
| 73> H        3.508028   -1.975261   -0.480581
| 74> H        7.417884   -0.197821   -0.305099
| 75> *
| 76>
| 77> %maxcore 5000
| 78>
| 79> %pal
| 80> nprocs = 24
| 81> end
| 82>
| 83>
| 84>                          ****END OF INPUT****

CARTESIAN COORDINATES (ANGSTROEM)
---------------------------------
  Ru     0.947158   -0.829727   -0.745491
  Cl     0.759536   -0.029843   -2.889353
  Cl     0.924249   -2.813196    0.406526
  P     -0.892858    0.059346    0.070519
  C      2.105770    0.298407    0.120511
  C     -1.060848    0.304387    1.904454
  C     -0.839571   -1.004781    2.681683
  C     -1.204393   -0.821649    4.161076
  C     -0.398097    0.318884    4.794081
  C     -0.569062    1.619286    3.999752
  C     -0.203235    1.422010    2.520494
  C     -1.361193    1.675223   -0.723442
  C     -0.190670    2.668218   -0.863157
  C     -0.617010    3.874515   -1.709852
  C     -1.846047    4.572418   -1.115292
  C     -3.005112    3.584426   -0.940399
  C     -2.585621    2.369196   -0.098214
  C     -2.266825   -1.149912   -0.318948
  C     -3.572387   -1.071522    0.495585
  C     -4.464103   -2.278800    0.161919
  C     -4.771803   -2.353480   -1.338652
  C     -3.481398   -2.368379   -2.166970
  C     -2.587234   -1.168835   -1.825450
  H      1.784946    1.202955    0.645761
  H     -2.115821    0.600966    2.014947
  H      0.212402   -1.294098    2.586311
  H     -1.418447   -1.824644    2.245913
  H     -1.028300   -1.758851    4.701667
  H     -2.278352   -0.600113    4.247046
  H      0.665500    0.042496    4.804792
  H     -0.699682    0.468438    5.837587
  H      0.050942    2.415093    4.429614
  H     -1.613622    1.955784    4.068877
  H     -0.334942    2.362910    1.978268
  H      0.854749    1.145201    2.447640
  H     -1.618911    1.357234   -1.743817
  H      0.662106    2.166051   -1.325328
  H      0.125060    3.019280    0.127484
  H     -0.846735    3.527698   -2.726710
  H      0.219033    4.578695   -1.795316
  H     -2.156025    5.410629   -1.750528
  H     -1.583038    4.996180   -0.135073
  H     -3.336384    3.234608   -1.928191
  H     -3.864727    4.078543   -0.471441
  H     -2.338056    2.702879    0.918040
  H     -3.425897    1.674720   -0.010060
  H     -1.782812   -2.105972   -0.070582
  H     -4.113822   -0.149509    0.251918
  H     -3.369403   -1.053503    1.570362
  H     -5.393534   -2.221008    0.741223
  H     -3.947864   -3.196972    0.475160
  H     -5.374229   -1.479434   -1.625752
  H     -5.376744   -3.241409   -1.557196
  H     -3.714322   -2.363052   -3.238224
  H     -2.925851   -3.294401   -1.964642
  H     -1.666731   -1.193589   -2.417765
  H     -3.111760   -0.241279   -2.093787
  C      3.546496    0.126586    0.028364
  C      4.389877    1.228237    0.286046
  C      5.770146    1.113346    0.161104
  C      6.339467   -0.106460   -0.212258
  C      5.519417   -1.212931   -0.453677
  C      4.139965   -1.102236   -0.332827
  H      3.943201    2.177101    0.573360
  H      6.405205    1.972855    0.357301
  H      5.961339   -2.166857   -0.726887
  H      3.508028   -1.975261   -0.480581
  H      7.417884   -0.197821   -0.305099

 Total Charge           Charge          ....    0
 Multiplicity           Mult            ....    1
 Number of Electrons    NEL             ....  254
 Basis Dimension        Dim             .... 1794

ORBITAL ENERGIES
----------------

  NO   OCC          E(Eh)            E(eV)
   0   2.0000    -100.942770     -2746.7924
   1   2.0000    -100.941679     -2746.7627
   2   2.0000     -76.620444     -2084.9483
   3   2.0000     -10.009016      -272.3592
   4   2.0000     -10.007282      -272.3120
   5   2.0000     -10.003970      -272.2219
   6   2.0000     -10.003700      -272.2145
   7   2.0000     -10.003244      -272.2021
   8   2.0000      -9.998228      -272.0656
   9   2.0000      -9.997770      -272.0531
  10   2.0000      -9.997142      -272.0361
  11   2.0000      -9.996450      -272.0172
  12   2.0000      -9.996423      -272.0165
  13   2.0000      -9.996167      -272.0095
  14   2.0000      -9.994887      -271.9747
  15   2.0000      -9.994474      -271.9635
  16   2.0000      -9.991053      -271.8704
  17   2.0000      -9.990597      -271.8580
  18   2.0000      -9.989208      -271.8202
  19   2.0000      -9.988715      -271.8068
  20   2.0000      -9.986866      -271.7565
  21   2.0000      -9.986752      -271.7533
  22   2.0000      -9.986351      -271.7424
  23   2.0000      -9.986243      -271.7395
  24   2.0000      -9.986186      -271.7379
  25   2.0000      -9.985458      -271.7181
  26   2.0000      -9.984459      -271.6909
  27   2.0000      -9.983960      -271.6774
  28   2.0000      -9.192360      -250.1368
  29   2.0000      -9.191290      -250.1077
  30   2.0000      -6.967925      -189.6069
  31   2.0000      -6.966803      -189.5764
  32   2.0000      -6.963904      -189.4975
  33   2.0000      -6.962958      -189.4717
  34   2.0000      -6.962857      -189.4690
  35   2.0000      -6.961901      -189.4430
  36   2.0000      -6.392988      -173.9621
  37   2.0000      -4.570260      -124.3631
  38   2.0000      -4.570132      -124.3596
  39   2.0000      -4.568772      -124.3226
  40   2.0000      -2.908854       -79.1539
  41   2.0000      -1.788514       -48.6679
  42   2.0000      -1.788069       -48.6558
  43   2.0000      -1.771778       -48.2125
  44   2.0000      -0.802667       -21.8417
  45   2.0000      -0.792993       -21.5784
  46   2.0000      -0.780298       -21.2330
  47   2.0000      -0.779435       -21.2095
  48   2.0000      -0.721347       -19.6289
  49   2.0000      -0.717439       -19.5225
  50   2.0000      -0.706860       -19.2346
  51   2.0000      -0.702278       -19.1100
  52   2.0000      -0.696503       -18.9528
  53   2.0000      -0.696060       -18.9408
  54   2.0000      -0.694644       -18.9022
  55   2.0000      -0.693773       -18.8785
  56   2.0000      -0.690164       -18.7803
  57   2.0000      -0.688894       -18.7457
  58   2.0000      -0.615371       -16.7451
  59   2.0000      -0.610791       -16.6205
  60   2.0000      -0.575614       -15.6632
  61   2.0000      -0.569769       -15.5042
  62   2.0000      -0.566900       -15.4261
  63   2.0000      -0.563048       -15.3213
  64   2.0000      -0.562506       -15.3066
  65   2.0000      -0.559526       -15.2255
  66   2.0000      -0.531507       -14.4630
  67   2.0000      -0.523669       -14.2498
  68   2.0000      -0.521564       -14.1925
  69   2.0000      -0.519935       -14.1482
  70   2.0000      -0.498676       -13.5697
  71   2.0000      -0.470479       -12.8024
  72   2.0000      -0.449341       -12.2272
  73   2.0000      -0.444769       -12.1028
  74   2.0000      -0.436057       -11.8657
  75   2.0000      -0.427803       -11.6411
  76   2.0000      -0.415308       -11.3011
  77   2.0000      -0.413163       -11.2427
  78   2.0000      -0.412326       -11.2200
  79   2.0000      -0.411580       -11.1997
  80   2.0000      -0.408891       -11.1265
  81   2.0000      -0.405884       -11.0447
  82   2.0000      -0.404985       -11.0202
  83   2.0000      -0.400241       -10.8911
  84   2.0000      -0.396858       -10.7991
  85   2.0000      -0.386517       -10.5177
  86   2.0000      -0.383838       -10.4448
  87   2.0000      -0.379473       -10.3260
  88   2.0000      -0.360392        -9.8068
  89   2.0000      -0.353314        -9.6142
  90   2.0000      -0.351708        -9.5705
  91   2.0000      -0.350232        -9.5303
  92   2.0000      -0.349795        -9.5184
  93   2.0000      -0.349129        -9.5003
  94   2.0000      -0.347223        -9.4484
  95   2.0000      -0.338141        -9.2013
  96   2.0000      -0.333784        -9.0827
  97   2.0000      -0.330980        -9.0064
  98   2.0000      -0.327852        -8.9213
  99   2.0000      -0.326053        -8.8724
 100   2.0000      -0.321973        -8.7613
 101   2.0000      -0.319482        -8.6935
 102   2.0000      -0.317323        -8.6348
 103   2.0000      -0.315283        -8.5793
 104   2.0000      -0.313140        -8.5210
 105   2.0000      -0.310935        -8.4610
 106   2.0000      -0.306984        -8.3534
 107   2.0000      -0.303749        -8.2654
 108   2.0000      -0.300083        -8.1657
 109   2.0000      -0.295208        -8.0330
 110   2.0000      -0.294003        -8.0002
 111   2.0000      -0.291113        -7.9216
 112   2.0000      -0.286433        -7.7942
 113   2.0000      -0.279762        -7.6127
 114   2.0000      -0.275620        -7.5000
 115   2.0000      -0.273955        -7.4547
 116   2.0000      -0.269685        -7.3385
 117   2.0000      -0.264317        -7.1924
 118   2.0000      -0.261481        -7.1153
 119   2.0000      -0.258298        -7.0287
 120   2.0000      -0.255002        -6.9390
 121   2.0000      -0.252602        -6.8737
 122   2.0000      -0.246760        -6.7147
 123   2.0000      -0.236457        -6.4343
 124   2.0000      -0.197358        -5.3704
 125   2.0000      -0.188906        -5.1404
 126   2.0000      -0.171854        -4.6764
 127   0.0000      -0.097028        -2.6403
 128   0.0000      -0.092820        -2.5258
 129   0.0000      -0.062066        -1.6889
 130   0.0000      -0.040142        -1.0923
 131   0.0000      -0.018748        -0.5102

MULLIKEN ATOMIC CHARGES
-----------------------
   0 Ru:   -2.131440
   1 Cl:   -0.576349
   2 Cl:   -0.574784
   3 P :    0.440897
   4 C :    1.020619
   5 C :   -0.055213
   6 C :   -0.203274
   7 C :   -0.124839
   8 C :    0.098866
   9 C :   -0.188247
  10 C :    0.228204
  11 C :    0.051638
  12 C :   -0.059597
  13 C :   -0.191285
  14 C :    0.118273
  15 C :   -0.175450
  16 C :    0.346016
  17 C :    0.144070
  18 C :    0.344409
  19 C :   -0.129431
  20 C :    0.043783
  21 C :   -0.095039
  22 C :   -0.247464
  23 H :    0.373265
  24 H :    0.687115
  25 H :    0.053686
  26 H :    0.114638
  27 H :   -0.087808
  28 H :    0.074704
  29 H :    0.067485
  30 H :   -0.059188
  31 H :   -0.079734
  32 H :    0.083588
  33 H :   -0.218450
  34 H :    0.183582
  35 H :    0.628577
  36 H :   -0.036069
  37 H :    0.128322
  38 H :    0.038220
  39 H :   -0.074427
  40 H :   -0.069740
  41 H :    0.060930
  42 H :    0.055288
  43 H :   -0.073865
  44 H :    0.154064
  45 H :   -0.273728
  46 H :    0.414368
  47 H :    0.045353
  48 H :   -0.130145
  49 H :   -0.070515
  50 H :    0.074200
  51 H :    0.074993
  52 H :   -0.069205
  53 H :   -0.064982
  54 H :    0.037991
  55 H :    0.180006
  56 H :    0.118432
  57 C :    0.201799
  58 C :   -0.198117
  59 C :   -0.309929
  60 C :   -0.126628
  61 C :   -0.442784
  62 C :   -0.005360
  63 H :    0.073948
  64 H :    0.081874
  65 H :    0.060225
  66 H :    0.133844
  67 H :    0.105812
Sum of atomic charges:    0.0000000

LOEWDIN ATOMIC CHARGES
----------------------
   0 Ru:    0.371953
   1 Cl:    0.000596
   2 Cl:    0.002059
   3 P :    0.976316
   4 C :   -0.139783
   5 C :   -0.275296
   6 C :   -0.054691
   7 C :   -0.000115
   8 C :   -0.008844
   9 C :    0.000310
  10 C :   -0.019643
  11 C :   -0.282488
  12 C :   -0.051378
  13 C :    0.001022
  14 C :   -0.010349
  15 C :   -0.000587
  16 C :   -0.009613
  17 C :   -0.283549
  18 C :   -0.014695
  19 C :    0.000584
  20 C :   -0.010580
  21 C :   -0.000703
  22 C :   -0.041945
  23 H :   -0.080499
  24 H :   -0.007538
  25 H :   -0.023166
  26 H :   -0.010712
  27 H :    0.013181
  28 H :    0.017491
  29 H :    0.019824
  30 H :    0.009275
  31 H :    0.011876
  32 H :    0.019045
  33 H :   -0.012970
  34 H :    0.003541
  35 H :   -0.025007
  36 H :   -0.054125
  37 H :   -0.000465
  38 H :    0.022022
  39 H :    0.012869
  40 H :    0.009223
  41 H :    0.017448
  42 H :    0.020229
  43 H :    0.011236
  44 H :    0.012883
  45 H :   -0.010706
  46 H :   -0.043619
  47 H :    0.002545
  48 H :   -0.005694
  49 H :    0.011557
  50 H :    0.021620
  51 H :    0.017339
  52 H :    0.009379
  53 H :    0.012489
  54 H :    0.021842
  55 H :   -0.047504
  56 H :    0.016114
  57 C :   -0.238156
  58 C :    0.044846
  59 C :    0.018591
  60 C :    0.019284
  61 C :    0.025605
  62 C :    0.031899
  63 H :    0.005864
  64 H :   -0.001810
  65 H :    0.001239
  66 H :   -0.044065
  67 H :   -0.002899

  Mayer bond orders larger than 0.100000
B(  0-Ru,  1-Cl) :   1.9573 B(  0-Ru,  2-Cl) :   1.8841 B(  0-Ru,  3-P ) :  -0.7257
B(  0-Ru,  4-C ) :   1.2864 B(  0-Ru,  5-C ) :   0.3029 B(  0-Ru, 11-C ) :   0.3417
B(  0-Ru, 12-C ) :   0.1001 B(  0-Ru, 16-C ) :  -0.1258 B(  0-Ru, 18-C ) :  -0.1056
B(  0-Ru, 22-C ) :   0.2699 B(  0-Ru, 24-H ) :  -0.1019 B(  0-Ru, 55-H ) :  -0.1234
B(  0-Ru, 57-C ) :  -0.2120 B(  0-Ru, 62-C ) :   0.1483 B(  1-Cl,  3-P ) :  -0.9554
B(  1-Cl,  4-C ) :  -0.1249 B(  1-Cl, 22-C ) :   0.1019 B(  1-Cl, 36-H ) :   0.1815
B(  1-Cl, 55-H ) :  -0.1500 B(  1-Cl, 57-C ) :  -0.2899 B(  2-Cl,  3-P ) :  -0.7625
B(  2-Cl,  4-C ) :  -0.3223 B(  2-Cl,  6-C ) :   0.1530 B(  2-Cl, 22-C ) :   0.1132
B(  2-Cl, 46-H ) :  -0.1187 B(  3-P ,  5-C ) :   0.9597 B(  3-P ,  6-C ) :   0.5868
B(  3-P , 10-C ) :  -0.2199 B(  3-P , 11-C ) :   0.7591 B(  3-P , 12-C ) :   0.8442
B(  3-P , 15-C ) :  -0.1677 B(  3-P , 16-C ) :   0.2272 B(  3-P , 17-C ) :   0.6891
B(  3-P , 18-C ) :   0.4843 B(  3-P , 22-C ) :   0.3456 B(  3-P , 24-H ) :   0.2065
B(  3-P , 35-H ) :  -0.4228 B(  3-P , 36-H ) :  -0.1132 B(  3-P , 45-H ) :   0.1079
B(  3-P , 48-H ) :   0.1047 B(  3-P , 55-H ) :   0.1204 B(  3-P , 57-C ) :  -0.1080
B(  4-C , 10-C ) :   0.1017 B(  4-C , 23-H ) :   0.6704 B(  4-C , 57-C ) :   0.8514
B(  4-C , 58-C ) :  -0.5484 B(  4-C , 61-C ) :  -0.1512 B(  4-C , 62-C ) :   0.1303
B(  4-C , 63-H ) :  -0.1176 B(  5-C ,  6-C ) :   1.1111 B(  5-C ,  7-C ) :   0.4349
B(  5-C ,  9-C ) :   0.3458 B(  5-C , 10-C ) :   1.0722 B(  5-C , 11-C ) :   0.1380
B(  5-C , 16-C ) :   0.1362 B(  5-C , 18-C ) :   0.1589 B(  5-C , 24-H ) :   0.3658
B(  6-C ,  7-C ) :   0.8613 B(  6-C ,  8-C ) :   0.1578 B(  6-C , 11-C ) :   0.1209
B(  6-C , 17-C ) :   0.2190 B(  6-C , 25-H ) :   0.6927 B(  6-C , 26-H ) :   0.8143
B(  7-C ,  8-C ) :   0.9191 B(  7-C ,  9-C ) :   0.1470 B(  7-C , 27-H ) :   0.9410
B(  7-C , 28-H ) :   0.9076 B(  8-C ,  9-C ) :   0.9201 B(  8-C , 10-C ) :   0.1516
B(  8-C , 29-H ) :   0.9056 B(  8-C , 30-H ) :   0.9369 B(  9-C , 10-C ) :   0.6201
B(  9-C , 31-H ) :   0.8787 B(  9-C , 32-H ) :   0.9187 B(  9-C , 33-H ) :   0.3769
B(  9-C , 34-H ) :  -0.1288 B( 10-C , 33-H ) :   0.8564 B( 10-C , 34-H ) :   0.8554
B( 11-C , 12-C ) :   0.6627 B( 11-C , 13-C ) :   0.4851 B( 11-C , 15-C ) :   0.4386
B( 11-C , 16-C ) :   1.1509 B( 11-C , 17-C ) :   0.2623 B( 11-C , 18-C ) :  -0.1338
B( 11-C , 22-C ) :   0.1205 B( 11-C , 35-H ) :   0.5611 B( 12-C , 13-C ) :   0.8142
B( 12-C , 14-C ) :   0.1330 B( 12-C , 16-C ) :  -0.1326 B( 12-C , 35-H ) :  -0.1046
B( 12-C , 36-H ) :   0.6526 B( 12-C , 37-H ) :   0.8290 B( 13-C , 14-C ) :   0.9024
B( 13-C , 15-C ) :   0.1692 B( 13-C , 36-H ) :   0.1554 B( 13-C , 38-H ) :   0.9307
B( 13-C , 39-H ) :   0.8877 B( 14-C , 15-C ) :   0.9275 B( 14-C , 16-C ) :   0.1135
B( 14-C , 40-H ) :   0.9408 B( 14-C , 41-H ) :   0.9116 B( 15-C , 16-C ) :   0.7459
B( 15-C , 42-H ) :   0.8613 B( 15-C , 43-H ) :   0.9134 B( 15-C , 45-H ) :   0.3051
B( 16-C , 17-C ) :   0.1028 B( 16-C , 35-H ) :  -0.1813 B( 16-C , 44-H ) :   0.8516
B( 16-C , 45-H ) :   0.7204 B( 17-C , 18-C ) :   0.8372 B( 17-C , 19-C ) :   0.4040
B( 17-C , 21-C ) :   0.3570 B( 17-C , 22-C ) :   0.9291 B( 17-C , 46-H ) :   0.7139
B( 17-C , 55-H ) :   0.1804 B( 18-C , 19-C ) :   0.7474 B( 18-C , 20-C ) :   0.1684
B( 18-C , 47-H ) :   0.8950 B( 18-C , 48-H ) :   0.7868 B( 19-C , 20-C ) :   0.9330
B( 19-C , 21-C ) :   0.1334 B( 19-C , 48-H ) :   0.2457 B( 19-C , 49-H ) :   0.9007
B( 19-C , 50-H ) :   0.9174 B( 20-C , 21-C ) :   0.9094 B( 20-C , 22-C ) :   0.1936
B( 20-C , 51-H ) :   0.9221 B( 20-C , 52-H ) :   0.9266 B( 21-C , 22-C ) :   0.9654
B( 21-C , 53-H ) :   0.9335 B( 21-C , 54-H ) :   0.9039 B( 22-C , 55-H ) :   0.6985
B( 22-C , 56-H ) :   0.9129 B( 23-H , 57-C ) :   0.1727 B( 57-C , 58-C ) :   1.4541
B( 57-C , 62-C ) :   0.4919 B( 57-C , 66-H ) :  -0.1791 B( 58-C , 59-C ) :   1.1979
B( 58-C , 63-H ) :   1.1004 B( 59-C , 60-C ) :   1.2602 B( 59-C , 64-H ) :   1.0526
B( 60-C , 61-C ) :   1.1855 B( 60-C , 67-H ) :   1.0328 B( 61-C , 62-C ) :   1.3616
B( 61-C , 65-H ) :   1.0801 B( 62-C , 66-H ) :   1.0327

Dispersion correction           -0.144391540
FINAL SINGLE POINT ENERGY     -2333.731694991894

DIPOLE MOMENT
-------------
                                X             Y             Z
Electronic contribution:     94.49361     -73.95192     -66.36479
Nuclear contribution   :    -95.45400      75.19378      67.48059
                        -----------------------------------------
Total Dipole Moment    :     -0.96039       1.24186       1.11580
                        -----------------------------------------
Magnitude (a.u.)       :      1.92602
Magnitude (Debye)      :      4.89557

Rotational constants in cm-1:     0.004948     0.003136     0.003087
Rotational constants in MHz :   148.341837    94.004802    92.554473

                             ****ORCA TERMINATED NORMALLY****
TOTAL RUN TIME: 0 days 0 hours 2 minutes 10 seconds 519 msec
