                         Program Version 4.2.0 -  RELEASE  -
|  1> #
|  2> # MOR17_ed36 TPSS-D3BJ/Def2-TZVPPD
|  3> #
|  4> ! tpss d3bj def2-tzvppd def2/j grid4 nofinalgrid
|  5>
|  6> *xyz 0 1
|  7> Mo      -0.000266    0.073285   -0.001759
|  8> C        1.725893   -0.773990   -1.226681
|  9> C        2.211696    0.414668   -0.610995
| 10> C        2.192326    0.250811    0.809261
| 11> C        1.685230   -1.035926    1.105715
| 12> C        1.413513   -1.680058   -0.153190
| 13> H        1.704188   -0.987838   -2.284881
| 14> H        2.536107    1.301869   -1.133102
| 15> H        2.493190    0.988099    1.537778
| 16> H        1.573828   -1.467340    2.089978
| 17> H        1.067801   -2.694661   -0.276651
| 18> C       -1.407221   -1.685804    0.112781
| 19> C       -1.709531   -0.814976    1.218351
| 20> C       -2.202710    0.272498   -0.775202
| 21> C       -1.695077   -1.002456   -1.122045
| 22> H       -1.669608   -1.061100    2.269076
| 23> H       -2.528690    1.258371    1.205067
| 24> C       -2.207491    0.390536    0.649493
| 25> H       -1.601566   -1.403288   -2.120864
| 26> H       -1.058155   -2.702954    0.200059
| 27> C        0.040880    2.214506    0.720862
| 28> H        0.978366    2.504794    1.184780
| 29> H       -0.817411    2.527371    1.307308
| 30> C       -0.044841    2.215313   -0.718681
| 31> H        0.814149    2.526211   -1.305102
| 32> H       -0.980875    2.509977   -1.182445
| 33> H       -2.516160    1.031799   -1.475134
| 34> *
| 35>
| 36> %maxcore 5000
| 37>
| 38> %pal
| 39> nprocs = 24
| 40> end
| 41>
| 42>
| 43>                          ****END OF INPUT****

CARTESIAN COORDINATES (ANGSTROEM)
---------------------------------
  Mo    -0.000266    0.073285   -0.001759
  C      1.725893   -0.773990   -1.226681
  C      2.211696    0.414668   -0.610995
  C      2.192326    0.250811    0.809261
  C      1.685230   -1.035926    1.105715
  C      1.413513   -1.680058   -0.153190
  H      1.704188   -0.987838   -2.284881
  H      2.536107    1.301869   -1.133102
  H      2.493190    0.988099    1.537778
  H      1.573828   -1.467340    2.089978
  H      1.067801   -2.694661   -0.276651
  C     -1.407221   -1.685804    0.112781
  C     -1.709531   -0.814976    1.218351
  C     -2.202710    0.272498   -0.775202
  C     -1.695077   -1.002456   -1.122045
  H     -1.669608   -1.061100    2.269076
  H     -2.528690    1.258371    1.205067
  C     -2.207491    0.390536    0.649493
  H     -1.601566   -1.403288   -2.120864
  H     -1.058155   -2.702954    0.200059
  C      0.040880    2.214506    0.720862
  H      0.978366    2.504794    1.184780
  H     -0.817411    2.527371    1.307308
  C     -0.044841    2.215313   -0.718681
  H      0.814149    2.526211   -1.305102
  H     -0.980875    2.509977   -1.182445
  H     -2.516160    1.031799   -1.475134

 Total Charge           Charge          ....    0
 Multiplicity           Mult            ....    1
 Number of Electrons    NEL             ....  100
 Basis Dimension        Dim             ....  738

ORBITAL ENERGIES
----------------

  NO   OCC          E(Eh)            E(eV)
   0   2.0000     -10.000302      -272.1221
   1   2.0000     -10.000221      -272.1198
   2   2.0000      -9.999913      -272.1115
   3   2.0000      -9.999747      -272.1070
   4   2.0000      -9.999231      -272.0929
   5   2.0000      -9.998535      -272.0740
   6   2.0000      -9.998416      -272.0707
   7   2.0000      -9.998313      -272.0679
   8   2.0000      -9.995805      -271.9997
   9   2.0000      -9.995327      -271.9867
  10   2.0000      -9.959389      -271.0088
  11   2.0000      -9.959011      -270.9985
  12   2.0000      -2.436505       -66.3007
  13   2.0000      -1.489754       -40.5383
  14   2.0000      -1.469179       -39.9784
  15   2.0000      -1.443279       -39.2736
  16   2.0000      -0.826421       -22.4881
  17   2.0000      -0.811882       -22.0924
  18   2.0000      -0.675061       -18.3693
  19   2.0000      -0.663482       -18.0543
  20   2.0000      -0.660636       -17.9768
  21   2.0000      -0.660611       -17.9761
  22   2.0000      -0.656981       -17.8774
  23   2.0000      -0.525337       -14.2951
  24   2.0000      -0.511624       -13.9220
  25   2.0000      -0.500081       -13.6079
  26   2.0000      -0.498324       -13.5601
  27   2.0000      -0.497017       -13.5245
  28   2.0000      -0.494711       -13.4618
  29   2.0000      -0.485968       -13.2239
  30   2.0000      -0.396811       -10.7978
  31   2.0000      -0.377853       -10.2819
  32   2.0000      -0.373444       -10.1619
  33   2.0000      -0.368206       -10.0194
  34   2.0000      -0.366627        -9.9764
  35   2.0000      -0.364043        -9.9061
  36   2.0000      -0.360014        -9.7965
  37   2.0000      -0.346055        -9.4166
  38   2.0000      -0.345370        -9.3980
  39   2.0000      -0.342648        -9.3239
  40   2.0000      -0.340246        -9.2586
  41   2.0000      -0.328453        -8.9377
  42   2.0000      -0.298485        -8.1222
  43   2.0000      -0.248383        -6.7588
  44   2.0000      -0.245122        -6.6701
  45   2.0000      -0.235391        -6.4053
  46   2.0000      -0.231078        -6.2880
  47   2.0000      -0.228473        -6.2171
  48   2.0000      -0.164089        -4.4651
  49   2.0000      -0.131916        -3.5896
  50   0.0000      -0.033414        -0.9092
  51   0.0000      -0.029169        -0.7937
  52   0.0000      -0.006608        -0.1798
  53   0.0000      -0.004008        -0.1091
  54   0.0000       0.001501         0.0408

MULLIKEN ATOMIC CHARGES
-----------------------
   0 Mo:   -1.804980
   1 C :    0.603197
   2 C :   -0.225605
   3 C :    0.012166
   4 C :    0.635411
   5 C :   -0.311526
   6 H :   -0.073221
   7 H :    0.030538
   8 H :    0.004988
   9 H :   -0.011392
  10 H :    0.108100
  11 C :   -0.319147
  12 C :    0.576601
  13 C :   -0.023038
  14 C :    0.650906
  15 H :   -0.069020
  16 H :    0.034777
  17 C :   -0.189820
  18 H :   -0.014379
  19 H :    0.113688
  20 C :    0.080971
  21 H :    0.034310
  22 H :    0.031192
  23 C :    0.054022
  24 H :    0.023502
  25 H :    0.038026
  26 H :    0.009732
Sum of atomic charges:    0.0000000

LOEWDIN ATOMIC CHARGES
----------------------
   0 Mo:    1.062894
   1 C :   -0.062158
   2 C :   -0.077581
   3 C :   -0.068205
   4 C :   -0.056840
   5 C :   -0.085311
   6 H :   -0.006033
   7 H :   -0.001940
   8 H :   -0.001916
   9 H :   -0.000766
  10 H :   -0.008181
  11 C :   -0.085662
  12 C :   -0.062470
  13 C :   -0.069245
  14 C :   -0.057052
  15 H :   -0.005542
  16 H :   -0.001973
  17 C :   -0.075411
  18 H :   -0.001559
  19 H :   -0.008381
  20 C :   -0.025484
  21 H :   -0.067622
  22 H :   -0.068174
  23 C :   -0.026503
  24 H :   -0.068448
  25 H :   -0.068241
  26 H :   -0.002197

  Mayer bond orders larger than 0.100000
B(  0-Mo,  2-C ) :   1.0045 B(  0-Mo,  3-C ) :   0.5923 B(  0-Mo,  5-C ) :   1.0642
B(  0-Mo, 11-C ) :   1.0774 B(  0-Mo, 13-C ) :   0.6519 B(  0-Mo, 17-C ) :   0.9600
B(  0-Mo, 20-C ) :   0.7280 B(  0-Mo, 23-C ) :   0.7408 B(  1-C ,  2-C ) :   0.7466
B(  1-C ,  3-C ) :  -0.1334 B(  1-C ,  5-C ) :   0.7238 B(  1-C ,  6-H ) :   1.0623
B(  1-C , 11-C ) :  -0.1755 B(  1-C , 12-C ) :   0.2940 B(  1-C , 13-C ) :   0.1010
B(  1-C , 14-C ) :   0.2516 B(  1-C , 17-C ) :  -0.2888 B(  2-C ,  3-C ) :   0.7873
B(  2-C ,  7-H ) :   1.0517 B(  2-C , 11-C ) :   0.1567 B(  2-C , 12-C ) :  -0.3083
B(  2-C , 14-C ) :  -0.1003 B(  2-C , 17-C ) :   0.1797 B(  2-C , 20-C ) :  -0.1233
B(  2-C , 23-C ) :   0.1483 B(  3-C ,  4-C ) :   0.7762 B(  3-C ,  8-H ) :   1.0698
B(  3-C , 12-C ) :   0.1376 B(  3-C , 13-C ) :   0.1118 B(  3-C , 20-C ) :   0.1509
B(  3-C , 23-C ) :  -0.1088 B(  4-C ,  5-C ) :   0.7580 B(  4-C ,  9-H ) :   0.9986
B(  4-C , 11-C ) :  -0.1499 B(  4-C , 12-C ) :   0.2272 B(  4-C , 13-C ) :  -0.1126
B(  4-C , 14-C ) :   0.2052 B(  4-C , 20-C ) :   0.1167 B(  5-C , 10-H ) :   1.0290
B(  5-C , 11-C ) :   0.4507 B(  5-C , 12-C ) :  -0.1692 B(  5-C , 14-C ) :  -0.1519
B(  5-C , 17-C ) :   0.1450 B( 11-C , 12-C ) :   0.7360 B( 11-C , 14-C ) :   0.7623
B( 11-C , 19-H ) :   1.0242 B( 12-C , 13-C ) :  -0.1452 B( 12-C , 15-H ) :   1.0610
B( 12-C , 17-C ) :   0.7627 B( 12-C , 20-C ) :   0.1028 B( 13-C , 14-C ) :   0.7639
B( 13-C , 17-C ) :   0.7867 B( 13-C , 20-C ) :  -0.1136 B( 13-C , 23-C ) :   0.1628
B( 13-C , 26-H ) :   1.0739 B( 14-C , 18-H ) :   1.0002 B( 14-C , 23-C ) :   0.1103
B( 16-H , 17-C ) :   1.0458 B( 17-C , 20-C ) :   0.1539 B( 17-C , 23-C ) :  -0.1192
B( 20-C , 21-H ) :   1.1167 B( 20-C , 22-H ) :   1.0973 B( 20-C , 23-C ) :   0.5733
B( 23-C , 24-H ) :   1.1049 B( 23-C , 25-H ) :   1.1099

Dispersion correction           -0.048666300
FINAL SINGLE POINT ENERGY      -534.259809410480

DIPOLE MOMENT
-------------
                                X             Y             Z
Electronic contribution:     -0.01292       0.83131      -0.10868
Nuclear contribution   :      0.01285      -1.32377       0.12031
                        -----------------------------------------
Total Dipole Moment    :     -0.00007      -0.49245       0.01163
                        -----------------------------------------
Magnitude (a.u.)       :      0.49259
Magnitude (Debye)      :      1.25207

Rotational constants in cm-1:     0.040116     0.028148     0.022583
Rotational constants in MHz :  1202.641010   843.851559   677.032187

                             ****ORCA TERMINATED NORMALLY****
TOTAL RUN TIME: 0 days 0 hours 0 minutes 28 seconds 997 msec
