                         Program Version 4.2.0 -  RELEASE  -
|  1> #
|  2> # MOR16_ed33 TPSS-D3BJ/Def2-TZVPPD
|  3> #
|  4> ! tpss d3bj def2-tzvppd def2/j grid4 nofinalgrid
|  5>
|  6> *xyz 0 1
|  7> Ru      -0.022566   -0.070875   -0.379144
|  8> P        0.186586   -1.836138    1.061273
|  9> P       -0.107348    1.786969    0.983128
| 10> P       -2.337688   -0.031549   -0.574608
| 11> P        2.258415    0.217420   -0.654771
| 12> H       -1.011320    0.631023   -2.964588
| 13> C       -0.084126    0.244754   -2.536818
| 14> C        0.002235   -1.177677   -2.238071
| 15> H       -0.861138   -1.806799   -2.436001
| 16> C       -1.265405   -2.900768    1.510519
| 17> C        0.882199   -1.676365    2.777543
| 18> C        1.273276   -3.202818    0.434593
| 19> C       -0.218657    3.482246    0.220382
| 20> C       -1.474202    1.984957    2.229068
| 21> C        1.261931    2.159069    2.186793
| 22> C       -3.132442   -1.089929   -1.868209
| 23> C       -3.503325   -0.454941    0.806619
| 24> C       -3.065826    1.589188   -1.096490
| 25> C        3.115513   -0.738567   -1.988082
| 26> C        3.484163   -0.113039    0.695104
| 27> C        2.817918    1.905477   -1.167131
| 28> H        0.775994    0.734504   -2.997508
| 29> H        0.923698   -1.705224   -2.468332
| 30> H       -1.797994   -3.196368    0.601740
| 31> H       -1.951513   -2.343187    2.152343
| 32> H       -0.940552   -3.802999    2.042563
| 33> H        0.220858   -1.033459    3.367392
| 34> H        1.866404   -1.203417    2.738274
| 35> H        0.973380   -2.648584    3.278375
| 36> H        0.869924   -3.550933   -0.520488
| 37> H        1.326184   -4.042772    1.138076
| 38> H        2.284288   -2.829356    0.252702
| 39> H       -0.255493    4.275719    0.977504
| 40> H       -1.111307    3.540133   -0.406666
| 41> H        0.646533    3.642441   -0.427500
| 42> H       -1.340744    2.904812    2.810047
| 43> H       -1.464232    1.128616    2.910406
| 44> H       -2.450699    2.022913    1.741739
| 45> H        1.024646    3.051958    2.776564
| 46> H        2.206281    2.332826    1.666415
| 47> H        1.391528    1.309503    2.862930
| 48> H       -4.214574   -0.920776   -1.864995
| 49> H       -2.933677   -2.144929   -1.660324
| 50> H       -2.737237   -0.849967   -2.858203
| 51> H       -4.496496   -0.037297    0.606865
| 52> H       -3.139236   -0.075571    1.761748
| 53> H       -3.591401   -1.541056    0.877459
| 54> H       -4.128475    1.484093   -1.343350
| 55> H       -2.520683    1.955160   -1.969951
| 56> H       -2.964031    2.325987   -0.296631
| 57> H        4.171126   -0.449128   -2.023284
| 58> H        2.657332   -0.533147   -2.958558
| 59> H        3.043678   -1.811163   -1.790971
| 60> H        4.490887    0.184953    0.381316
| 61> H        3.492626   -1.181661    0.925550
| 62> H        3.218142    0.429172    1.603169
| 63> H        3.886252    1.913189   -1.411457
| 64> H        2.634640    2.627880   -0.369051
| 65> H        2.240286    2.211368   -2.043241
| 66> *
| 67>
| 68> %maxcore 5000
| 69>
| 70> %pal
| 71> nprocs = 24
| 72> end
| 73>
| 74>
| 75>                          ****END OF INPUT****

CARTESIAN COORDINATES (ANGSTROEM)
---------------------------------
  Ru    -0.022566   -0.070875   -0.379144
  P      0.186586   -1.836138    1.061273
  P     -0.107348    1.786969    0.983128
  P     -2.337688   -0.031549   -0.574608
  P      2.258415    0.217420   -0.654771
  H     -1.011320    0.631023   -2.964588
  C     -0.084126    0.244754   -2.536818
  C      0.002235   -1.177677   -2.238071
  H     -0.861138   -1.806799   -2.436001
  C     -1.265405   -2.900768    1.510519
  C      0.882199   -1.676365    2.777543
  C      1.273276   -3.202818    0.434593
  C     -0.218657    3.482246    0.220382
  C     -1.474202    1.984957    2.229068
  C      1.261931    2.159069    2.186793
  C     -3.132442   -1.089929   -1.868209
  C     -3.503325   -0.454941    0.806619
  C     -3.065826    1.589188   -1.096490
  C      3.115513   -0.738567   -1.988082
  C      3.484163   -0.113039    0.695104
  C      2.817918    1.905477   -1.167131
  H      0.775994    0.734504   -2.997508
  H      0.923698   -1.705224   -2.468332
  H     -1.797994   -3.196368    0.601740
  H     -1.951513   -2.343187    2.152343
  H     -0.940552   -3.802999    2.042563
  H      0.220858   -1.033459    3.367392
  H      1.866404   -1.203417    2.738274
  H      0.973380   -2.648584    3.278375
  H      0.869924   -3.550933   -0.520488
  H      1.326184   -4.042772    1.138076
  H      2.284288   -2.829356    0.252702
  H     -0.255493    4.275719    0.977504
  H     -1.111307    3.540133   -0.406666
  H      0.646533    3.642441   -0.427500
  H     -1.340744    2.904812    2.810047
  H     -1.464232    1.128616    2.910406
  H     -2.450699    2.022913    1.741739
  H      1.024646    3.051958    2.776564
  H      2.206281    2.332826    1.666415
  H      1.391528    1.309503    2.862930
  H     -4.214574   -0.920776   -1.864995
  H     -2.933677   -2.144929   -1.660324
  H     -2.737237   -0.849967   -2.858203
  H     -4.496496   -0.037297    0.606865
  H     -3.139236   -0.075571    1.761748
  H     -3.591401   -1.541056    0.877459
  H     -4.128475    1.484093   -1.343350
  H     -2.520683    1.955160   -1.969951
  H     -2.964031    2.325987   -0.296631
  H      4.171126   -0.449128   -2.023284
  H      2.657332   -0.533147   -2.958558
  H      3.043678   -1.811163   -1.790971
  H      4.490887    0.184953    0.381316
  H      3.492626   -1.181661    0.925550
  H      3.218142    0.429172    1.603169
  H      3.886252    1.913189   -1.411457
  H      2.634640    2.627880   -0.369051
  H      2.240286    2.211368   -2.043241

 Total Charge           Charge          ....    0
 Multiplicity           Mult            ....    1
 Number of Electrons    NEL             ....  200
 Basis Dimension        Dim             .... 1446

ORBITAL ENERGIES
----------------

  NO   OCC          E(Eh)            E(eV)
   0   2.0000     -76.593385     -2084.2120
   1   2.0000     -76.592081     -2084.1765
   2   2.0000     -76.585929     -2084.0091
   3   2.0000     -76.582867     -2083.9258
   4   2.0000      -9.981174      -271.6016
   5   2.0000      -9.979031      -271.5432
   6   2.0000      -9.978073      -271.5172
   7   2.0000      -9.977132      -271.4916
   8   2.0000      -9.976996      -271.4879
   9   2.0000      -9.976851      -271.4839
  10   2.0000      -9.976058      -271.4623
  11   2.0000      -9.975570      -271.4490
  12   2.0000      -9.973015      -271.3795
  13   2.0000      -9.972747      -271.3723
  14   2.0000      -9.970190      -271.3027
  15   2.0000      -9.969492      -271.2837
  16   2.0000      -9.943334      -270.5719
  17   2.0000      -9.936639      -270.3897
  18   2.0000      -6.365160      -173.2048
  19   2.0000      -6.363968      -173.1724
  20   2.0000      -6.356617      -172.9723
  21   2.0000      -6.353788      -172.8954
  22   2.0000      -4.543051      -123.6227
  23   2.0000      -4.542823      -123.6165
  24   2.0000      -4.541832      -123.5895
  25   2.0000      -4.541647      -123.5845
  26   2.0000      -4.539796      -123.5341
  27   2.0000      -4.538575      -123.5009
  28   2.0000      -4.534604      -123.3928
  29   2.0000      -4.534270      -123.3837
  30   2.0000      -4.531720      -123.3144
  31   2.0000      -4.531512      -123.3087
  32   2.0000      -4.531417      -123.3061
  33   2.0000      -4.528528      -123.2275
  34   2.0000      -2.843426       -77.3735
  35   2.0000      -1.722956       -46.8840
  36   2.0000      -1.716263       -46.7019
  37   2.0000      -1.709626       -46.5213
  38   2.0000      -0.712318       -19.3831
  39   2.0000      -0.707604       -19.2549
  40   2.0000      -0.698844       -19.0165
  41   2.0000      -0.697236       -18.9728
  42   2.0000      -0.653672       -17.7873
  43   2.0000      -0.640549       -17.4302
  44   2.0000      -0.638738       -17.3809
  45   2.0000      -0.637751       -17.3541
  46   2.0000      -0.631511       -17.1843
  47   2.0000      -0.630018       -17.1437
  48   2.0000      -0.629491       -17.1293
  49   2.0000      -0.627919       -17.0865
  50   2.0000      -0.626899       -17.0588
  51   2.0000      -0.501758       -13.6535
  52   2.0000      -0.499319       -13.5872
  53   2.0000      -0.488389       -13.2897
  54   2.0000      -0.482411       -13.1271
  55   2.0000      -0.481242       -13.0953
  56   2.0000      -0.416707       -11.3392
  57   2.0000      -0.415375       -11.3029
  58   2.0000      -0.406951       -11.0737
  59   2.0000      -0.402691       -10.9578
  60   2.0000      -0.396348       -10.7852
  61   2.0000      -0.393262       -10.7012
  62   2.0000      -0.391107       -10.6426
  63   2.0000      -0.386881       -10.5276
  64   2.0000      -0.383047       -10.4232
  65   2.0000      -0.379387       -10.3237
  66   2.0000      -0.376076       -10.2335
  67   2.0000      -0.373264       -10.1570
  68   2.0000      -0.371120       -10.0987
  69   2.0000      -0.361566        -9.8387
  70   2.0000      -0.358360        -9.7515
  71   2.0000      -0.357051        -9.7159
  72   2.0000      -0.352959        -9.6045
  73   2.0000      -0.351149        -9.5553
  74   2.0000      -0.349764        -9.5176
  75   2.0000      -0.347992        -9.4693
  76   2.0000      -0.346058        -9.4167
  77   2.0000      -0.344175        -9.3655
  78   2.0000      -0.342416        -9.3176
  79   2.0000      -0.341493        -9.2925
  80   2.0000      -0.339028        -9.2254
  81   2.0000      -0.336756        -9.1636
  82   2.0000      -0.302466        -8.2305
  83   2.0000      -0.300008        -8.1636
  84   2.0000      -0.295231        -8.0337
  85   2.0000      -0.293295        -7.9810
  86   2.0000      -0.290456        -7.9037
  87   2.0000      -0.286106        -7.7853
  88   2.0000      -0.282404        -7.6846
  89   2.0000      -0.280344        -7.6286
  90   2.0000      -0.278274        -7.5722
  91   2.0000      -0.275566        -7.4985
  92   2.0000      -0.264833        -7.2065
  93   2.0000      -0.255584        -6.9548
  94   2.0000      -0.219501        -5.9729
  95   2.0000      -0.206506        -5.6193
  96   2.0000      -0.164838        -4.4855
  97   2.0000      -0.162456        -4.4207
  98   2.0000      -0.149082        -4.0567
  99   2.0000      -0.126748        -3.4490
 100   0.0000      -0.014271        -0.3883
 101   0.0000      -0.004381        -0.1192
 102   0.0000      -0.001109        -0.0302
 103   0.0000       0.000872         0.0237
 104   0.0000       0.010043         0.2733

MULLIKEN ATOMIC CHARGES
-----------------------
   0 Ru:   -1.290780
   1 P :    1.495550
   2 P :    1.078146
   3 P :    1.092146
   4 P :    0.811461
   5 H :    0.065309
   6 C :   -0.632626
   7 C :   -0.115780
   8 H :    0.094774
   9 C :   -0.813246
  10 C :   -0.756430
  11 C :   -0.788396
  12 C :   -0.813042
  13 C :   -0.709281
  14 C :   -0.718424
  15 C :   -0.770058
  16 C :   -0.676428
  17 C :   -0.776794
  18 C :   -0.779866
  19 C :   -0.677939
  20 C :   -0.701462
  21 H :    0.085416
  22 H :    0.152914
  23 H :    0.143408
  24 H :    0.167497
  25 H :    0.198726
  26 H :    0.146374
  27 H :    0.155342
  28 H :    0.182922
  29 H :    0.153124
  30 H :    0.186168
  31 H :    0.139644
  32 H :    0.191054
  33 H :    0.113723
  34 H :    0.130645
  35 H :    0.196773
  36 H :    0.169635
  37 H :    0.193645
  38 H :    0.200122
  39 H :    0.189046
  40 H :    0.205199
  41 H :    0.175044
  42 H :    0.139895
  43 H :    0.201373
  44 H :    0.175907
  45 H :    0.123594
  46 H :    0.207595
  47 H :    0.174782
  48 H :    0.149507
  49 H :    0.174476
  50 H :    0.194606
  51 H :    0.207520
  52 H :    0.158267
  53 H :    0.185880
  54 H :    0.168441
  55 H :    0.162567
  56 H :    0.177939
  57 H :    0.156629
  58 H :    0.147767
Sum of atomic charges:    0.0000000

LOEWDIN ATOMIC CHARGES
----------------------
   0 Ru:    0.153451
   1 P :    0.771904
   2 P :    0.758091
   3 P :    0.819901
   4 P :    0.814352
   5 H :   -0.096305
   6 C :   -0.139296
   7 C :   -0.151395
   8 H :   -0.097704
   9 C :   -0.035697
  10 C :   -0.028072
  11 C :   -0.024925
  12 C :   -0.008739
  13 C :   -0.035699
  14 C :   -0.031034
  15 C :   -0.020020
  16 C :   -0.013980
  17 C :   -0.018203
  18 C :   -0.013926
  19 C :   -0.011842
  20 C :   -0.013369
  21 H :   -0.095400
  22 H :   -0.099445
  23 H :   -0.062881
  24 H :   -0.072990
  25 H :   -0.057108
  26 H :   -0.067085
  27 H :   -0.083841
  28 H :   -0.056563
  29 H :   -0.056759
  30 H :   -0.057422
  31 H :   -0.089563
  32 H :   -0.055554
  33 H :   -0.077169
  34 H :   -0.075750
  35 H :   -0.056053
  36 H :   -0.063101
  37 H :   -0.087847
  38 H :   -0.055401
  39 H :   -0.087683
  40 H :   -0.068591
  41 H :   -0.050801
  42 H :   -0.057426
  43 H :   -0.059025
  44 H :   -0.049514
  45 H :   -0.081564
  46 H :   -0.073079
  47 H :   -0.053602
  48 H :   -0.061535
  49 H :   -0.086132
  50 H :   -0.051867
  51 H :   -0.057973
  52 H :   -0.061090
  53 H :   -0.049884
  54 H :   -0.073381
  55 H :   -0.085107
  56 H :   -0.052706
  57 H :   -0.087571
  58 H :   -0.059030

  Mayer bond orders larger than 0.100000
B(  0-Ru,  1-P ) :   0.6265 B(  0-Ru,  2-P ) :   0.6393 B(  0-Ru,  3-P ) :   0.5210
B(  0-Ru,  4-P ) :   0.5361 B(  0-Ru,  6-C ) :   0.9176 B(  0-Ru,  7-C ) :   0.8265
B(  0-Ru,  9-C ) :   0.1017 B(  0-Ru, 10-C ) :   0.1157 B(  0-Ru, 11-C ) :   0.2043
B(  0-Ru, 12-C ) :   0.1442 B(  0-Ru, 15-C ) :   0.1267 B(  0-Ru, 17-C ) :   0.1133
B(  0-Ru, 20-C ) :   0.1568 B(  1-P ,  2-P ) :   0.3675 B(  1-P ,  4-P ) :   0.2316
B(  1-P ,  9-C ) :   0.5902 B(  1-P , 10-C ) :   0.6665 B(  1-P , 11-C ) :   0.7736
B(  2-P ,  3-P ) :   0.2181 B(  2-P ,  4-P ) :   0.2183 B(  2-P ,  7-C ) :   0.1080
B(  2-P , 12-C ) :   0.7866 B(  2-P , 13-C ) :   0.4238 B(  2-P , 14-C ) :   0.4203
B(  3-P ,  4-P ) :   0.2366 B(  3-P ,  6-C ) :   0.2323 B(  3-P ,  7-C ) :  -0.2540
B(  3-P , 15-C ) :   0.5548 B(  3-P , 16-C ) :   0.6325 B(  3-P , 17-C ) :   0.6569
B(  4-P ,  6-C ) :   0.2035 B(  4-P ,  7-C ) :  -0.1945 B(  4-P , 14-C ) :   0.1146
B(  4-P , 18-C ) :   0.6186 B(  4-P , 19-C ) :   0.7129 B(  4-P , 20-C ) :   0.5583
B(  5-H ,  6-C ) :   1.2844 B(  5-H ,  7-C ) :  -0.1557 B(  6-C ,  7-C ) :   0.5417
B(  6-C ,  8-H ) :  -0.1512 B(  6-C , 21-H ) :   1.1989 B(  6-C , 22-H ) :  -0.1373
B(  7-C ,  8-H ) :   1.1698 B(  7-C , 21-H ) :  -0.1268 B(  7-C , 22-H ) :   1.1764
B(  9-C , 10-C ) :   0.1711 B(  9-C , 11-C ) :   0.1878 B(  9-C , 23-H ) :   1.0256
B(  9-C , 24-H ) :   0.9639 B(  9-C , 25-H ) :   0.9332 B( 10-C , 11-C ) :   0.1337
B( 10-C , 26-H ) :   0.9883 B( 10-C , 27-H ) :   1.0128 B( 10-C , 28-H ) :   0.9544
B( 11-C , 29-H ) :   0.9798 B( 11-C , 30-H ) :   0.9500 B( 11-C , 31-H ) :   0.9924
B( 12-C , 13-C ) :   0.1394 B( 12-C , 14-C ) :   0.1489 B( 12-C , 32-H ) :   0.9376
B( 12-C , 33-H ) :   1.0184 B( 12-C , 34-H ) :   1.0270 B( 13-C , 14-C ) :   0.2289
B( 13-C , 35-H ) :   0.9494 B( 13-C , 36-H ) :   1.0106 B( 13-C , 37-H ) :   0.9650
B( 14-C , 38-H ) :   0.9394 B( 14-C , 39-H ) :   0.9509 B( 14-C , 40-H ) :   1.0110
B( 15-C , 16-C ) :   0.2060 B( 15-C , 17-C ) :   0.1708 B( 15-C , 41-H ) :   0.9570
B( 15-C , 42-H ) :   1.0180 B( 15-C , 43-H ) :   0.9303 B( 16-C , 17-C ) :   0.1036
B( 16-C , 44-H ) :   0.9305 B( 16-C , 45-H ) :   1.0875 B( 16-C , 46-H ) :   0.9215
B( 17-C , 47-H ) :   0.9679 B( 17-C , 48-H ) :   0.9914 B( 17-C , 49-H ) :   0.9808
B( 18-C , 19-C ) :   0.1463 B( 18-C , 20-C ) :   0.1483 B( 18-C , 22-H ) :   0.1039
B( 18-C , 50-H ) :   0.9265 B( 18-C , 51-H ) :   0.9400 B( 18-C , 52-H ) :   1.0187
B( 19-C , 20-C ) :   0.1034 B( 19-C , 53-H ) :   0.9266 B( 19-C , 54-H ) :   0.9667
B( 19-C , 55-H ) :   1.0305 B( 20-C , 56-H ) :   0.9447 B( 20-C , 57-H ) :   0.9867
B( 20-C , 58-H ) :   0.9944

Dispersion correction           -0.130958417
FINAL SINGLE POINT ENERGY     -2018.638243702911

DIPOLE MOMENT
-------------
                                X             Y             Z
Electronic contribution:     -1.81075      -5.15534     -27.00179
Nuclear contribution   :      1.82563       5.30534      27.72313
                        -----------------------------------------
Total Dipole Moment    :      0.01488       0.15000       0.72135
                        -----------------------------------------
Magnitude (a.u.)       :      0.73693
Magnitude (Debye)      :      1.87312

Rotational constants in cm-1:     0.009351     0.007693     0.006898
Rotational constants in MHz :   280.325632   230.636339   206.809498

                             ****ORCA TERMINATED NORMALLY****
TOTAL RUN TIME: 0 days 0 hours 1 minutes 19 seconds 755 msec
