                         Program Version 4.2.0 -  RELEASE  -
|  1> #
|  2> # MOR11_ed11 TPSS-D3BJ/Def2-TZVPPD
|  3> #
|  4> ! tpss d3bj def2-tzvppd def2/j grid4 nofinalgrid
|  5>
|  6> *xyz 0 1
|  7> C       -0.215143    2.474912    0.000943
|  8> C        0.405007    3.719049    0.001069
|  9> C        1.797844    3.776033    0.000678
| 10> C        2.518886    2.587780    0.000166
| 11> H       -1.296303    2.357179    0.001183
| 12> H       -0.198474    4.620568    0.001502
| 13> H        2.316345    4.729851    0.000789
| 14> H        3.602578    2.611029   -0.000041
| 15> N        0.477795    1.324684    0.000439
| 16> C        1.835277    1.367244    0.000057
| 17> C        2.509992    0.059887   -0.000357
| 18> N        1.694840   -1.036421    0.000876
| 19> C        2.257001   -2.260308    0.000535
| 20> C        4.472096   -1.347919   -0.002398
| 21> C        3.629983   -2.459360   -0.001050
| 22> H        1.562821   -3.092687    0.001515
| 23> H        4.023772   -3.470102   -0.001337
| 24> C        3.900751   -0.081941   -0.002040
| 25> H        4.532932    0.798314   -0.003223
| 26> H        5.551118   -1.464051   -0.003853
| 27> Pd      -0.336917   -0.654572    0.001071
| 28> C       -0.858975   -2.626404    0.002691
| 29> H       -0.413078   -3.060930    0.907026
| 30> H       -0.415091   -3.062278   -0.901950
| 31> H       -1.933716   -2.807010    0.004117
| 32> I       -2.840745   -0.024929   -0.001244
| 33> *
| 34>
| 35> %maxcore 5000
| 36>
| 37> %pal
| 38> nprocs = 24
| 39> end
| 40>
| 41>
| 42>                          ****END OF INPUT****

CARTESIAN COORDINATES (ANGSTROEM)
---------------------------------
  C     -0.215143    2.474912    0.000943
  C      0.405007    3.719049    0.001069
  C      1.797844    3.776033    0.000678
  C      2.518886    2.587780    0.000166
  H     -1.296303    2.357179    0.001183
  H     -0.198474    4.620568    0.001502
  H      2.316345    4.729851    0.000789
  H      3.602578    2.611029   -0.000041
  N      0.477795    1.324684    0.000439
  C      1.835277    1.367244    0.000057
  C      2.509992    0.059887   -0.000357
  N      1.694840   -1.036421    0.000876
  C      2.257001   -2.260308    0.000535
  C      4.472096   -1.347919   -0.002398
  C      3.629983   -2.459360   -0.001050
  H      1.562821   -3.092687    0.001515
  H      4.023772   -3.470102   -0.001337
  C      3.900751   -0.081941   -0.002040
  H      4.532932    0.798314   -0.003223
  H      5.551118   -1.464051   -0.003853
  Pd    -0.336917   -0.654572    0.001071
  C     -0.858975   -2.626404    0.002691
  H     -0.413078   -3.060930    0.907026
  H     -0.415091   -3.062278   -0.901950
  H     -1.933716   -2.807010    0.004117
  I     -2.840745   -0.024929   -0.001244

 Total Charge           Charge          ....    0
 Multiplicity           Mult            ....    1
 Number of Electrons    NEL             ....  134
 Basis Dimension        Dim             ....  783

ORBITAL ENERGIES
----------------

  NO   OCC          E(Eh)            E(eV)
   0   2.0000     -14.168823      -385.5533
   1   2.0000     -14.153761      -385.1434
   2   2.0000     -10.070344      -274.0280
   3   2.0000     -10.066319      -273.9185
   4   2.0000     -10.055058      -273.6120
   5   2.0000     -10.045441      -273.3503
   6   2.0000     -10.038251      -273.1547
   7   2.0000     -10.036398      -273.1043
   8   2.0000     -10.034752      -273.0595
   9   2.0000     -10.032799      -273.0064
  10   2.0000     -10.031074      -272.9594
  11   2.0000     -10.024831      -272.7895
  12   2.0000      -9.954573      -270.8777
  13   2.0000      -6.579893      -179.0480
  14   2.0000      -4.633614      -126.0870
  15   2.0000      -4.628025      -125.9350
  16   2.0000      -4.627239      -125.9136
  17   2.0000      -3.326960       -90.5312
  18   2.0000      -2.046245       -55.6812
  19   2.0000      -2.041519       -55.5525
  20   2.0000      -2.017783       -54.9067
  21   2.0000      -1.748841       -47.5884
  22   2.0000      -1.747438       -47.5502
  23   2.0000      -1.747080       -47.5405
  24   2.0000      -1.742095       -47.4048
  25   2.0000      -1.742042       -47.4034
  26   2.0000      -0.934825       -25.4379
  27   2.0000      -0.909262       -24.7423
  28   2.0000      -0.786742       -21.4083
  29   2.0000      -0.776977       -21.1426
  30   2.0000      -0.772999       -21.0344
  31   2.0000      -0.720665       -19.6103
  32   2.0000      -0.641481       -17.4556
  33   2.0000      -0.632551       -17.2126
  34   2.0000      -0.604640       -16.4531
  35   2.0000      -0.597493       -16.2586
  36   2.0000      -0.589110       -16.0305
  37   2.0000      -0.571457       -15.5501
  38   2.0000      -0.530958       -14.4481
  39   2.0000      -0.493958       -13.4413
  40   2.0000      -0.489867       -13.3300
  41   2.0000      -0.472965       -12.8700
  42   2.0000      -0.453925       -12.3519
  43   2.0000      -0.436100       -11.8669
  44   2.0000      -0.424383       -11.5480
  45   2.0000      -0.423613       -11.5271
  46   2.0000      -0.414972       -11.2920
  47   2.0000      -0.404299       -11.0015
  48   2.0000      -0.389687       -10.6039
  49   2.0000      -0.370988       -10.0951
  50   2.0000      -0.358724        -9.7614
  51   2.0000      -0.342541        -9.3210
  52   2.0000      -0.340165        -9.2564
  53   2.0000      -0.328203        -8.9309
  54   2.0000      -0.323300        -8.7974
  55   2.0000      -0.311302        -8.4710
  56   2.0000      -0.300465        -8.1761
  57   2.0000      -0.296845        -8.0776
  58   2.0000      -0.251807        -6.8520
  59   2.0000      -0.237174        -6.4538
  60   2.0000      -0.233599        -6.3565
  61   2.0000      -0.225153        -6.1267
  62   2.0000      -0.223462        -6.0807
  63   2.0000      -0.200488        -5.4556
  64   2.0000      -0.184623        -5.0238
  65   2.0000      -0.175023        -4.7626
  66   2.0000      -0.172164        -4.6848
  67   0.0000      -0.120461        -3.2779
  68   0.0000      -0.092950        -2.5293
  69   0.0000      -0.081083        -2.2064
  70   0.0000      -0.056977        -1.5504
  71   0.0000      -0.038842        -1.0570

MULLIKEN ATOMIC CHARGES
-----------------------
   0 C :    0.178295
   1 C :   -0.263980
   2 C :   -0.144030
   3 C :   -0.119532
   4 H :   -0.197164
   5 H :    0.089144
   6 H :    0.098608
   7 H :    0.062783
   8 N :    0.142802
   9 C :    0.811303
  10 C :   -0.117408
  11 N :    0.166589
  12 C :   -0.044493
  13 C :   -0.177504
  14 C :   -0.259012
  15 H :    0.088329
  16 H :    0.084470
  17 C :   -0.117871
  18 H :    0.066092
  19 H :    0.095706
  20 Pd:   -0.269951
  21 C :   -0.287704
  22 H :    0.124501
  23 H :    0.125039
  24 H :    0.179130
  25 I :   -0.314143
Sum of atomic charges:    0.0000000

LOEWDIN ATOMIC CHARGES
----------------------
   0 C :   -0.056650
   1 C :    0.058900
   2 C :    0.046131
   3 C :    0.079260
   4 H :   -0.093446
   5 H :    0.005243
   6 H :    0.006679
   7 H :   -0.002722
   8 N :   -0.002199
   9 C :   -0.179805
  10 C :   -0.167718
  11 N :    0.009031
  12 C :   -0.017569
  13 C :    0.046573
  14 C :    0.058313
  15 H :   -0.016158
  16 H :    0.005798
  17 C :    0.080058
  18 H :   -0.001298
  19 H :    0.006925
  20 Pd:    0.459323
  21 C :   -0.066600
  22 H :   -0.110136
  23 H :   -0.110101
  24 H :   -0.167348
  25 I :    0.129515

  Mayer bond orders larger than 0.100000
B(  0-C ,  1-C ) :   1.1358 B(  0-C ,  4-H ) :   1.0585 B(  0-C ,  8-N ) :   1.3409
B(  0-C , 20-Pd) :  -0.1022 B(  0-C , 25-I ) :  -0.1676 B(  1-C ,  2-C ) :   1.1691
B(  1-C ,  5-H ) :   1.0576 B(  1-C , 20-Pd) :   0.1136 B(  2-C ,  3-C ) :   1.1365
B(  2-C ,  6-H ) :   1.0320 B(  2-C ,  8-N ) :   0.1071 B(  3-C ,  7-H ) :   1.1847
B(  3-C ,  8-N ) :  -0.1907 B(  3-C ,  9-C ) :   0.7990 B(  3-C , 10-C ) :  -0.4608
B(  3-C , 20-Pd) :   0.1405 B(  4-H ,  8-N ) :  -0.1132 B(  4-H , 25-I ) :   0.3369
B(  7-H ,  9-C ) :  -0.1030 B(  8-N ,  9-C ) :   0.9210 B(  8-N , 10-C ) :   0.6828
B(  8-N , 20-Pd) :   0.1505 B(  8-N , 25-I ) :  -0.1265 B(  9-C , 10-C ) :   1.1987
B(  9-C , 17-C ) :  -0.5879 B(  9-C , 20-Pd) :  -0.2134 B( 10-C , 11-N ) :   1.4497
B( 10-C , 13-C ) :  -0.1205 B( 10-C , 17-C ) :   0.8971 B( 10-C , 18-H ) :  -0.1019
B( 10-C , 20-Pd) :   0.2318 B( 11-N , 12-C ) :   1.5484 B( 11-N , 13-C ) :   0.1138
B( 11-N , 17-C ) :  -0.2013 B( 11-N , 20-Pd) :   0.2980 B( 12-C , 14-C ) :   1.1067
B( 12-C , 15-H ) :   1.0525 B( 13-C , 14-C ) :   1.1980 B( 13-C , 17-C ) :   1.1383
B( 13-C , 19-H ) :   1.0384 B( 14-C , 16-H ) :   1.0426 B( 17-C , 18-H ) :   1.1770
B( 17-C , 20-Pd) :   0.1407 B( 20-Pd, 21-C ) :   0.5616 B( 20-Pd, 22-H ) :   0.1145
B( 20-Pd, 23-H ) :   0.1143 B( 20-Pd, 25-I ) :   1.0136 B( 21-C , 22-H ) :   1.0079
B( 21-C , 23-H ) :   1.0078 B( 21-C , 24-H ) :   0.9691

Dispersion correction           -0.050251628
FINAL SINGLE POINT ENERGY      -961.212568449687

DIPOLE MOMENT
-------------
                                X             Y             Z
Electronic contribution:   -214.95356     -39.95954      -0.01938
Nuclear contribution   :    218.94043      41.00073       0.01934
                        -----------------------------------------
Total Dipole Moment    :      3.98687       1.04119      -0.00004
                        -----------------------------------------
Magnitude (a.u.)       :      4.12059
Magnitude (Debye)      :     10.47370

Rotational constants in cm-1:     0.017794     0.008244     0.005640
Rotational constants in MHz :   533.441148   247.152748   169.085365

                             ****ORCA TERMINATED NORMALLY****
TOTAL RUN TIME: 0 days 0 hours 1 minutes 23 seconds 478 msec
