                         Program Version 4.2.0 -  RELEASE  -
|  1> #
|  2> # MOR14_ed26 TPSS-D3BJ/Def2-TZVPPD
|  3> #
|  4> ! tpss d3bj def2-tzvppd def2/j grid4 nofinalgrid
|  5>
|  6> *xyz 0 1
|  7> Ru      -0.064344   -0.175682   -0.012222
|  8> C        1.546320    1.136494   -0.983353
|  9> C        1.182588    1.622095    0.326342
| 10> C        2.076803   -0.497674    0.579629
| 11> C        2.043947   -0.183601   -0.846926
| 12> C        1.561141    0.611266    1.297590
| 13> C        1.492783    1.931783   -2.249249
| 14> H        0.696535    2.680581   -2.225612
| 15> H        1.338709    1.291322   -3.121811
| 16> H        2.442862    2.463439   -2.390633
| 17> C        2.565540   -1.075324   -1.928175
| 18> H        2.249514   -0.728507   -2.915600
| 19> H        2.192282   -2.094362   -1.786204
| 20> H        3.663236   -1.101421   -1.912436
| 21> C        2.692583   -1.723434    1.172166
| 22> H        3.783501   -1.598681    1.210971
| 23> H        2.457484   -2.606090    0.574387
| 24> H        2.333089   -1.899010    2.188816
| 25> C        1.552612    0.773239    2.786124
| 26> H        2.502734    1.205302    3.127194
| 27> H        1.421923   -0.187720    3.289969
| 28> H        0.754394    1.442873    3.118115
| 29> C        0.799428    3.031668    0.660505
| 30> H        1.693878    3.613580    0.920796
| 31> H        0.118442    3.075561    1.514596
| 32> H        0.315927    3.528553   -0.183556
| 33> Cl      -0.006885   -2.617235   -0.279085
| 34> C       -1.774511   -0.580489   -1.372668
| 35> C       -1.428717    0.775607   -1.463600
| 36> C       -2.230150    1.901113   -0.842184
| 37> C       -2.597560    1.596364    0.619137
| 38> C       -1.528383    0.747182    1.301561
| 39> C       -1.615603   -0.659023    1.435525
| 40> C       -2.738883   -1.472042    0.832207
| 41> C       -3.001399   -1.117797   -0.653050
| 42> H       -3.131417    2.097786   -1.444322
| 43> H       -3.561641    1.080890    0.673312
| 44> H       -1.631000    2.816891   -0.882167
| 45> H       -3.816216   -0.389170   -0.734954
| 46> H       -1.353755   -1.240657   -2.123162
| 47> H       -0.836828    1.063474   -2.328552
| 48> H       -3.337183   -2.018298   -1.174989
| 49> H       -2.460187   -2.525401    0.898608
| 50> H       -1.127422   -1.117347    2.293712
| 51> H       -3.660878   -1.338434    1.419672
| 52> H       -2.720080    2.533691    1.172959
| 53> H       -0.970929    1.269583    2.073632
| 54> *
| 55>
| 56> %maxcore 5000
| 57>
| 58> %pal
| 59> nprocs = 24
| 60> end
| 61>
| 62>
| 63>                          ****END OF INPUT****

CARTESIAN COORDINATES (ANGSTROEM)
---------------------------------
  Ru    -0.064344   -0.175682   -0.012222
  C      1.546320    1.136494   -0.983353
  C      1.182588    1.622095    0.326342
  C      2.076803   -0.497674    0.579629
  C      2.043947   -0.183601   -0.846926
  C      1.561141    0.611266    1.297590
  C      1.492783    1.931783   -2.249249
  H      0.696535    2.680581   -2.225612
  H      1.338709    1.291322   -3.121811
  H      2.442862    2.463439   -2.390633
  C      2.565540   -1.075324   -1.928175
  H      2.249514   -0.728507   -2.915600
  H      2.192282   -2.094362   -1.786204
  H      3.663236   -1.101421   -1.912436
  C      2.692583   -1.723434    1.172166
  H      3.783501   -1.598681    1.210971
  H      2.457484   -2.606090    0.574387
  H      2.333089   -1.899010    2.188816
  C      1.552612    0.773239    2.786124
  H      2.502734    1.205302    3.127194
  H      1.421923   -0.187720    3.289969
  H      0.754394    1.442873    3.118115
  C      0.799428    3.031668    0.660505
  H      1.693878    3.613580    0.920796
  H      0.118442    3.075561    1.514596
  H      0.315927    3.528553   -0.183556
  Cl    -0.006885   -2.617235   -0.279085
  C     -1.774511   -0.580489   -1.372668
  C     -1.428717    0.775607   -1.463600
  C     -2.230150    1.901113   -0.842184
  C     -2.597560    1.596364    0.619137
  C     -1.528383    0.747182    1.301561
  C     -1.615603   -0.659023    1.435525
  C     -2.738883   -1.472042    0.832207
  C     -3.001399   -1.117797   -0.653050
  H     -3.131417    2.097786   -1.444322
  H     -3.561641    1.080890    0.673312
  H     -1.631000    2.816891   -0.882167
  H     -3.816216   -0.389170   -0.734954
  H     -1.353755   -1.240657   -2.123162
  H     -0.836828    1.063474   -2.328552
  H     -3.337183   -2.018298   -1.174989
  H     -2.460187   -2.525401    0.898608
  H     -1.127422   -1.117347    2.293712
  H     -3.660878   -1.338434    1.419672
  H     -2.720080    2.533691    1.172959
  H     -0.970929    1.269583    2.073632

 Total Charge           Charge          ....    0
 Multiplicity           Mult            ....    1
 Number of Electrons    NEL             ....  168
 Basis Dimension        Dim             .... 1232

ORBITAL ENERGIES
----------------

  NO   OCC          E(Eh)            E(eV)
   0   2.0000    -100.901494     -2745.6692
   1   2.0000     -10.018809      -272.6256
   2   2.0000     -10.015696      -272.5409
   3   2.0000     -10.012344      -272.4497
   4   2.0000     -10.011707      -272.4324
   5   2.0000     -10.008012      -272.3319
   6   2.0000     -10.001768      -272.1619
   7   2.0000     -10.000168      -272.1184
   8   2.0000      -9.997998      -272.0594
   9   2.0000      -9.992612      -271.9128
  10   2.0000      -9.988923      -271.8124
  11   2.0000      -9.988318      -271.7960
  12   2.0000      -9.985567      -271.7211
  13   2.0000      -9.983454      -271.6636
  14   2.0000      -9.981756      -271.6174
  15   2.0000      -9.981256      -271.6038
  16   2.0000      -9.978748      -271.5355
  17   2.0000      -9.975841      -271.4564
  18   2.0000      -9.970706      -271.3167
  19   2.0000      -9.151186      -249.0164
  20   2.0000      -6.927787      -188.5147
  21   2.0000      -6.921854      -188.3532
  22   2.0000      -6.921585      -188.3459
  23   2.0000      -2.897648       -78.8490
  24   2.0000      -1.783783       -48.5392
  25   2.0000      -1.768963       -48.1359
  26   2.0000      -1.758401       -47.8485
  27   2.0000      -0.839718       -22.8499
  28   2.0000      -0.770805       -20.9747
  29   2.0000      -0.736026       -20.0283
  30   2.0000      -0.730385       -19.8748
  31   2.0000      -0.714126       -19.4324
  32   2.0000      -0.708221       -19.2717
  33   2.0000      -0.679894       -18.5009
  34   2.0000      -0.670184       -18.2366
  35   2.0000      -0.668252       -18.1841
  36   2.0000      -0.660391       -17.9701
  37   2.0000      -0.632698       -17.2166
  38   2.0000      -0.609562       -16.5870
  39   2.0000      -0.585981       -15.9454
  40   2.0000      -0.577342       -15.7103
  41   2.0000      -0.542304       -14.7568
  42   2.0000      -0.502168       -13.6647
  43   2.0000      -0.482732       -13.1358
  44   2.0000      -0.481610       -13.1053
  45   2.0000      -0.468103       -12.7377
  46   2.0000      -0.449624       -12.2349
  47   2.0000      -0.435889       -11.8611
  48   2.0000      -0.424005       -11.5378
  49   2.0000      -0.418523       -11.3886
  50   2.0000      -0.411992       -11.2109
  51   2.0000      -0.399392       -10.8680
  52   2.0000      -0.396880       -10.7997
  53   2.0000      -0.392225       -10.6730
  54   2.0000      -0.386508       -10.5174
  55   2.0000      -0.384225       -10.4553
  56   2.0000      -0.376446       -10.2436
  57   2.0000      -0.373783       -10.1712
  58   2.0000      -0.369823       -10.0634
  59   2.0000      -0.367988       -10.0135
  60   2.0000      -0.365987        -9.9590
  61   2.0000      -0.364493        -9.9183
  62   2.0000      -0.353120        -9.6089
  63   2.0000      -0.345535        -9.4025
  64   2.0000      -0.344635        -9.3780
  65   2.0000      -0.325991        -8.8707
  66   2.0000      -0.324908        -8.8412
  67   2.0000      -0.317873        -8.6498
  68   2.0000      -0.315298        -8.5797
  69   2.0000      -0.313279        -8.5247
  70   2.0000      -0.309095        -8.4109
  71   2.0000      -0.305496        -8.3130
  72   2.0000      -0.284790        -7.7495
  73   2.0000      -0.278236        -7.5712
  74   2.0000      -0.266801        -7.2600
  75   2.0000      -0.250637        -6.8202
  76   2.0000      -0.248013        -6.7488
  77   2.0000      -0.237652        -6.4668
  78   2.0000      -0.229114        -6.2345
  79   2.0000      -0.222325        -6.0498
  80   2.0000      -0.214764        -5.8440
  81   2.0000      -0.184205        -5.0125
  82   2.0000      -0.177786        -4.8378
  83   2.0000      -0.163586        -4.4514
  84   0.0000      -0.065595        -1.7849
  85   0.0000      -0.041329        -1.1246
  86   0.0000      -0.019528        -0.5314
  87   0.0000      -0.007369        -0.2005
  88   0.0000      -0.002239        -0.0609

MULLIKEN ATOMIC CHARGES
-----------------------
   0 Ru:   -2.435804
   1 C :    0.041397
   2 C :    0.987002
   3 C :    0.444596
   4 C :    0.461763
   5 C :    0.760556
   6 C :   -0.491837
   7 H :    0.131397
   8 H :    0.159671
   9 H :    0.012608
  10 C :   -0.809209
  11 H :    0.081180
  12 H :    0.095497
  13 H :    0.120542
  14 C :   -0.580870
  15 H :    0.087863
  16 H :    0.098962
  17 H :    0.058768
  18 C :   -0.533684
  19 H :    0.050598
  20 H :    0.151753
  21 H :    0.034815
  22 C :   -0.432993
  23 H :    0.031262
  24 H :    0.058471
  25 H :    0.112707
  26 Cl:   -0.551170
  27 C :   -0.798154
  28 C :    1.158894
  29 C :    0.060444
  30 C :   -0.252605
  31 C :    0.031955
  32 C :    0.691929
  33 C :   -0.041495
  34 C :    0.263646
  35 H :    0.012724
  36 H :    0.045826
  37 H :    0.050720
  38 H :    0.049680
  39 H :   -0.070093
  40 H :    0.328052
  41 H :   -0.056138
  42 H :    0.129999
  43 H :   -0.164799
  44 H :    0.089905
  45 H :    0.004528
  46 H :    0.319141
Sum of atomic charges:    0.0000000

LOEWDIN ATOMIC CHARGES
----------------------
   0 Ru:    0.991258
   1 C :   -0.207223
   2 C :   -0.220356
   3 C :   -0.255978
   4 C :   -0.234693
   5 C :   -0.228693
   6 C :    0.176917
   7 H :   -0.018799
   8 H :   -0.012017
   9 H :    0.008646
  10 C :    0.169367
  11 H :   -0.016269
  12 H :   -0.049643
  13 H :    0.001199
  14 C :    0.150320
  15 H :    0.004588
  16 H :   -0.061873
  17 H :   -0.014372
  18 C :    0.188139
  19 H :    0.004982
  20 H :   -0.009900
  21 H :   -0.023328
  22 C :    0.189312
  23 H :    0.005481
  24 H :   -0.016323
  25 H :   -0.023929
  26 Cl:    0.184154
  27 C :   -0.154492
  28 C :   -0.096656
  29 C :   -0.003679
  30 C :    0.006781
  31 C :   -0.102207
  32 C :   -0.155280
  33 C :   -0.057313
  34 C :   -0.015166
  35 H :    0.019596
  36 H :   -0.000304
  37 H :   -0.010463
  38 H :    0.000580
  39 H :   -0.040496
  40 H :   -0.024492
  41 H :    0.010806
  42 H :   -0.029961
  43 H :   -0.012270
  44 H :    0.014203
  45 H :    0.011362
  46 H :   -0.041518

  Mayer bond orders larger than 0.100000
B(  0-Ru,  1-C ) :   1.0215 B(  0-Ru,  2-C ) :   0.3662 B(  0-Ru,  3-C ) :   0.4183
B(  0-Ru,  4-C ) :   0.3232 B(  0-Ru, 10-C ) :   0.3502 B(  0-Ru, 14-C ) :   0.1703
B(  0-Ru, 26-Cl) :   0.8144 B(  0-Ru, 27-C ) :   1.3931 B(  0-Ru, 28-C ) :  -0.3075
B(  0-Ru, 29-C ) :   0.4613 B(  0-Ru, 30-C ) :   0.2248 B(  0-Ru, 31-C ) :   0.7523
B(  0-Ru, 32-C ) :   0.3443 B(  0-Ru, 33-C ) :   0.2048 B(  0-Ru, 34-C ) :   0.1330
B(  0-Ru, 39-H ) :   0.1635 B(  0-Ru, 43-H ) :   0.1170 B(  1-C ,  2-C ) :  -0.2312
B(  1-C ,  4-C ) :   0.2355 B(  1-C ,  5-C ) :  -0.5078 B(  1-C ,  6-C ) :   1.0343
B(  1-C , 10-C ) :  -0.2024 B(  1-C , 18-C ) :   0.1176 B(  1-C , 22-C ) :   0.1392
B(  1-C , 26-Cl) :   0.1609 B(  1-C , 27-C ) :   0.1519 B(  1-C , 28-C ) :  -0.1024
B(  2-C ,  4-C ) :  -0.5605 B(  2-C ,  5-C ) :   0.1979 B(  2-C ,  6-C ) :  -0.1934
B(  2-C , 14-C ) :   0.1010 B(  2-C , 18-C ) :  -0.3457 B(  2-C , 22-C ) :   0.9289
B(  2-C , 27-C ) :  -0.3163 B(  2-C , 31-C ) :  -0.1108 B(  3-C ,  4-C ) :   0.3244
B(  3-C ,  5-C ) :   0.6770 B(  3-C , 10-C ) :  -0.3012 B(  3-C , 12-H ) :   0.1639
B(  3-C , 14-C ) :   1.2883 B(  3-C , 27-C ) :  -0.1265 B(  3-C , 28-C ) :  -0.2056
B(  3-C , 32-C ) :   0.1278 B(  4-C ,  5-C ) :  -0.3543 B(  4-C ,  6-C ) :   0.1345
B(  4-C , 10-C ) :   1.3096 B(  4-C , 12-H ) :  -0.1090 B(  4-C , 14-C ) :  -0.1731
B(  4-C , 26-Cl) :  -0.4658 B(  4-C , 27-C ) :   0.2332 B(  4-C , 28-C ) :   0.1982
B(  4-C , 32-C ) :  -0.2042 B(  5-C , 10-C ) :   0.2191 B(  5-C , 17-H ) :   0.1092
B(  5-C , 18-C ) :   1.2028 B(  5-C , 26-Cl) :   0.1774 B(  5-C , 28-C ) :   0.3014
B(  5-C , 32-C ) :   0.2365 B(  6-C ,  7-H ) :   0.9748 B(  6-C ,  8-H ) :   0.8914
B(  6-C ,  9-H ) :   0.9238 B(  6-C , 22-C ) :   0.1244 B(  6-C , 27-C ) :   0.1103
B( 10-C , 11-H ) :   0.9625 B( 10-C , 12-H ) :   0.9130 B( 10-C , 13-H ) :   0.8859
B( 10-C , 14-C ) :   0.3258 B( 10-C , 26-Cl) :   0.1620 B( 10-C , 27-C ) :  -0.1180
B( 14-C , 15-H ) :   0.8968 B( 14-C , 16-H ) :   0.8777 B( 14-C , 17-H ) :   0.9160
B( 14-C , 18-C ) :   0.1336 B( 18-C , 19-H ) :   0.9129 B( 18-C , 20-H ) :   0.8637
B( 18-C , 21-H ) :   1.0506 B( 18-C , 22-C ) :   0.1567 B( 22-C , 23-H ) :   0.8705
B( 22-C , 24-H ) :   0.9672 B( 22-C , 25-H ) :   0.9476 B( 26-Cl, 32-C ) :  -0.2442
B( 26-Cl, 34-C ) :  -0.2502 B( 26-Cl, 39-H ) :   0.2378 B( 27-C , 28-C ) :  -0.4768
B( 27-C , 32-C ) :  -0.2675 B( 27-C , 34-C ) :   1.1864 B( 27-C , 39-H ) :   1.5140
B( 27-C , 40-H ) :  -0.2568 B( 27-C , 41-H ) :   0.1227 B( 27-C , 43-H ) :   0.1139
B( 28-C , 29-C ) :   1.3399 B( 28-C , 30-C ) :   0.1638 B( 28-C , 32-C ) :   0.2259
B( 28-C , 37-H ) :   0.2136 B( 28-C , 39-H ) :  -0.3999 B( 28-C , 40-H ) :   0.9765
B( 28-C , 43-H ) :  -0.1302 B( 29-C , 30-C ) :   0.9102 B( 29-C , 34-C ) :  -0.1346
B( 29-C , 35-H ) :   0.8866 B( 29-C , 37-H ) :   0.7478 B( 29-C , 46-H ) :   0.1027
B( 30-C , 31-C ) :   1.5593 B( 30-C , 33-C ) :  -0.1034 B( 30-C , 34-C ) :   0.1661
B( 30-C , 36-H ) :   0.8814 B( 30-C , 45-H ) :   0.8295 B( 31-C , 32-C ) :   0.8587
B( 31-C , 33-C ) :  -0.1880 B( 31-C , 43-H ) :  -0.1260 B( 31-C , 45-H ) :   0.1518
B( 31-C , 46-H ) :   0.6425 B( 32-C , 33-C ) :   1.2922 B( 32-C , 34-C ) :   0.1116
B( 32-C , 42-H ) :   0.1323 B( 32-C , 43-H ) :   1.1430 B( 32-C , 46-H ) :  -0.1893
B( 33-C , 34-C ) :   0.9066 B( 33-C , 39-H ) :   0.1680 B( 33-C , 42-H ) :   0.7932
B( 33-C , 44-H ) :   0.8796 B( 34-C , 38-H ) :   0.9283 B( 34-C , 41-H ) :   0.8208
B( 36-H , 45-H ) :  -0.1034

Dispersion correction           -0.096358127
FINAL SINGLE POINT ENERGY     -1257.889608173104

DIPOLE MOMENT
-------------
                                X             Y             Z
Electronic contribution:     -2.93894     -21.74343      -2.00566
Nuclear contribution   :      3.57716      23.71136       2.15126
                        -----------------------------------------
Total Dipole Moment    :      0.63822       1.96793       0.14560
                        -----------------------------------------
Magnitude (a.u.)       :      2.07395
Magnitude (Debye)      :      5.27157

Rotational constants in cm-1:     0.013422     0.011126     0.009459
Rotational constants in MHz :   402.378908   333.556426   283.583792

                             ****ORCA TERMINATED NORMALLY****
TOTAL RUN TIME: 0 days 0 hours 1 minutes 17 seconds 648 msec
