                         Program Version 4.2.0 -  RELEASE  -
|  1> #
|  2> # MOR15_ed28 TPSS-D3BJ/Def2-TZVPPD
|  3> #
|  4> ! tpss d3bj def2-tzvppd def2/j grid4 nofinalgrid
|  5>
|  6> *xyz 0 1
|  7> P        2.231289   -0.430274   -0.463190
|  8> P       -2.231227    0.430230   -0.463237
|  9> C        0.601806    0.475539   -0.398801
| 10> C       -0.601746   -0.475582   -0.398812
| 11> H        0.558406    1.125089   -1.282007
| 12> H        0.584231    1.127683    0.485308
| 13> H       -0.558397   -1.125071   -1.282069
| 14> H       -0.584133   -1.127767    0.485258
| 15> C       -2.297387    1.057835    1.283006
| 16> H       -3.294023    1.464895    1.482076
| 17> H       -1.575039    1.869076    1.414857
| 18> H       -2.084239    0.266904    2.013068
| 19> C       -3.365229   -1.028103   -0.282748
| 20> H       -3.089031   -1.663694    0.567640
| 21> H       -3.336618   -1.627593   -1.198231
| 22> H       -4.392612   -0.676718   -0.143291
| 23> C        3.365219    1.028123   -0.282780
| 24> H        4.392633    0.676869   -0.143242
| 25> H        3.088901    1.663766    0.567523
| 26> H        3.336575    1.627522   -1.198328
| 27> C        2.297280   -1.057763    1.283073
| 28> H        1.574883   -1.868971    1.414841
| 29> H        2.084009   -0.266765    2.013028
| 30> H        3.293857   -1.464863    1.482348
| 31> *
| 32>
| 33> %maxcore 5000
| 34>
| 35> %pal
| 36> nprocs = 24
| 37> end
| 38>
| 39>
| 40>                          ****END OF INPUT****

CARTESIAN COORDINATES (ANGSTROEM)
---------------------------------
  P      2.231289   -0.430274   -0.463190
  P     -2.231227    0.430230   -0.463237
  C      0.601806    0.475539   -0.398801
  C     -0.601746   -0.475582   -0.398812
  H      0.558406    1.125089   -1.282007
  H      0.584231    1.127683    0.485308
  H     -0.558397   -1.125071   -1.282069
  H     -0.584133   -1.127767    0.485258
  C     -2.297387    1.057835    1.283006
  H     -3.294023    1.464895    1.482076
  H     -1.575039    1.869076    1.414857
  H     -2.084239    0.266904    2.013068
  C     -3.365229   -1.028103   -0.282748
  H     -3.089031   -1.663694    0.567640
  H     -3.336618   -1.627593   -1.198231
  H     -4.392612   -0.676718   -0.143291
  C      3.365219    1.028123   -0.282780
  H      4.392633    0.676869   -0.143242
  H      3.088901    1.663766    0.567523
  H      3.336575    1.627522   -1.198328
  C      2.297280   -1.057763    1.283073
  H      1.574883   -1.868971    1.414841
  H      2.084009   -0.266765    2.013028
  H      3.293857   -1.464863    1.482348

 Total Charge           Charge          ....    0
 Multiplicity           Mult            ....    1
 Number of Electrons    NEL             ....   82
 Basis Dimension        Dim             ....  590

ORBITAL ENERGIES
----------------

  NO   OCC          E(Eh)            E(eV)
   0   2.0000     -76.572251     -2083.6369
   1   2.0000     -76.572249     -2083.6368
   2   2.0000      -9.991838      -271.8917
   3   2.0000      -9.991727      -271.8887
   4   2.0000      -9.984697      -271.6974
   5   2.0000      -9.984697      -271.6974
   6   2.0000      -9.984325      -271.6873
   7   2.0000      -9.984325      -271.6873
   8   2.0000      -6.347344      -172.7200
   9   2.0000      -6.347343      -172.7200
  10   2.0000      -4.524816      -123.1265
  11   2.0000      -4.524814      -123.1265
  12   2.0000      -4.524680      -123.1228
  13   2.0000      -4.524679      -123.1228
  14   2.0000      -4.521647      -123.0403
  15   2.0000      -4.521646      -123.0402
  16   2.0000      -0.731688       -19.9102
  17   2.0000      -0.694787       -18.9061
  18   2.0000      -0.666580       -18.1386
  19   2.0000      -0.638857       -17.3842
  20   2.0000      -0.638619       -17.3777
  21   2.0000      -0.579781       -15.7766
  22   2.0000      -0.486496       -13.2382
  23   2.0000      -0.479458       -13.0467
  24   2.0000      -0.424230       -11.5439
  25   2.0000      -0.395223       -10.7546
  26   2.0000      -0.390885       -10.6365
  27   2.0000      -0.389303       -10.5935
  28   2.0000      -0.385318       -10.4850
  29   2.0000      -0.365108        -9.9351
  30   2.0000      -0.363436        -9.8896
  31   2.0000      -0.362446        -9.8626
  32   2.0000      -0.361520        -9.8375
  33   2.0000      -0.339401        -9.2356
  34   2.0000      -0.331297        -9.0150
  35   2.0000      -0.321883        -8.7589
  36   2.0000      -0.291584        -7.9344
  37   2.0000      -0.289306        -7.8724
  38   2.0000      -0.261022        -7.1028
  39   2.0000      -0.201466        -5.4822
  40   2.0000      -0.198876        -5.4117
  41   0.0000      -0.006855        -0.1865
  42   0.0000       0.000261         0.0071
  43   0.0000       0.000690         0.0188
  44   0.0000       0.003026         0.0824
  45   0.0000       0.008594         0.2339

MULLIKEN ATOMIC CHARGES
-----------------------
   0 P :   -0.300619
   1 P :   -0.300627
   2 C :   -0.091406
   3 C :   -0.091031
   4 H :    0.093283
   5 H :    0.160477
   6 H :    0.093273
   7 H :    0.160476
   8 C :   -0.275240
   9 H :    0.101078
  10 H :    0.092945
  11 H :    0.152030
  12 C :   -0.265862
  13 H :    0.139321
  14 H :    0.094833
  15 H :    0.098970
  16 C :   -0.265835
  17 H :    0.098955
  18 H :    0.139322
  19 H :    0.094818
  20 C :   -0.275176
  21 H :    0.092924
  22 H :    0.152047
  23 H :    0.101047
Sum of atomic charges:   -0.0000000

LOEWDIN ATOMIC CHARGES
----------------------
   0 P :    0.915093
   1 P :    0.915100
   2 C :   -0.294927
   3 C :   -0.294923
   4 H :   -0.035434
   5 H :   -0.039695
   6 H :   -0.035435
   7 H :   -0.039698
   8 C :   -0.074354
   9 H :   -0.066708
  10 H :   -0.072853
  11 H :   -0.057126
  12 C :   -0.079724
  13 H :   -0.060452
  14 H :   -0.066710
  15 H :   -0.067115
  16 C :   -0.079720
  17 H :   -0.067114
  18 H :   -0.060459
  19 H :   -0.066706
  20 C :   -0.074363
  21 H :   -0.072856
  22 H :   -0.057123
  23 H :   -0.066701

  Mayer bond orders larger than 0.100000
B(  0-P ,  2-C ) :   0.6428 B(  0-P ,  3-C ) :   0.2559 B(  0-P , 16-C ) :   0.9184
B(  0-P , 20-C ) :   0.8770 B(  1-P ,  2-C ) :   0.2560 B(  1-P ,  3-C ) :   0.6427
B(  1-P ,  8-C ) :   0.8770 B(  1-P , 12-C ) :   0.9183 B(  2-C ,  3-C ) :   1.1116
B(  2-C ,  4-H ) :   0.9919 B(  2-C ,  5-H ) :   0.8872 B(  3-C ,  6-H ) :   0.9918
B(  3-C ,  7-H ) :   0.8872 B(  8-C ,  9-H ) :   0.9961 B(  8-C , 10-H ) :   0.9993
B(  8-C , 11-H ) :   0.9386 B( 12-C , 13-H ) :   0.9471 B( 12-C , 14-H ) :   0.9941
B( 12-C , 15-H ) :   0.9929 B( 16-C , 17-H ) :   0.9930 B( 16-C , 18-H ) :   0.9471
B( 16-C , 19-H ) :   0.9941 B( 20-C , 21-H ) :   0.9994 B( 20-C , 22-H ) :   0.9386
B( 20-C , 23-H ) :   0.9961

Dispersion correction           -0.031442378
FINAL SINGLE POINT ENERGY      -921.230100282289

DIPOLE MOMENT
-------------
                                X             Y             Z
Electronic contribution:      0.00066      -0.00041      -7.06315
Nuclear contribution   :     -0.00067       0.00041       7.75547
                        -----------------------------------------
Total Dipole Moment    :     -0.00001       0.00001       0.69232
                        -----------------------------------------
Magnitude (a.u.)       :      0.69232
Magnitude (Debye)      :      1.75973

Rotational constants in cm-1:     0.093884     0.018404     0.018105
Rotational constants in MHz :  2814.581921   551.745538   542.775536

                             ****ORCA TERMINATED NORMALLY****
TOTAL RUN TIME: 0 days 0 hours 0 minutes 11 seconds 859 msec
