                         Program Version 4.2.0 -  RELEASE  -
|  1> #
|  2> # MOR23_phseh TPSS-D3BJ/Def2-TZVPPD
|  3> #
|  4> ! tpss d3bj def2-tzvppd def2/j grid4 nofinalgrid
|  5>
|  6> *xyz 0 1
|  7> C        0.099641    0.015172    0.000002
|  8> C        0.811159    1.219454    0.000004
|  9> C        2.205438    1.200000    0.000001
| 10> C        2.898295   -0.010923    0.000001
| 11> C        2.184022   -1.209573    0.000001
| 12> C        0.790170   -1.202154    0.000003
| 13> Se      -1.821201   -0.043502   -0.000002
| 14> H       -1.984560    1.419830   -0.000002
| 15> H        0.283594    2.168662    0.000009
| 16> H        2.749671    2.140448   -0.000003
| 17> H        3.983980   -0.020380    0.000003
| 18> H        2.711288   -2.159513   -0.000002
| 19> H        0.244496   -2.141840    0.000007
| 20> *
| 21>
| 22> %maxcore 5000
| 23>
| 24> %pal
| 25> nprocs = 24
| 26> end
| 27>
| 28>
| 29>                          ****END OF INPUT****

CARTESIAN COORDINATES (ANGSTROEM)
---------------------------------
  C      0.099641    0.015172    0.000002
  C      0.811159    1.219454    0.000004
  C      2.205438    1.200000    0.000001
  C      2.898295   -0.010923    0.000001
  C      2.184022   -1.209573    0.000001
  C      0.790170   -1.202154    0.000003
  Se    -1.821201   -0.043502   -0.000002
  H     -1.984560    1.419830   -0.000002
  H      0.283594    2.168662    0.000009
  H      2.749671    2.140448   -0.000003
  H      3.983980   -0.020380    0.000003
  H      2.711288   -2.159513   -0.000002
  H      0.244496   -2.141840    0.000007

 Total Charge           Charge          ....    0
 Multiplicity           Mult            ....    1
 Number of Electrons    NEL             ....   76
 Basis Dimension        Dim             ....  381

ORBITAL ENERGIES
----------------

  NO   OCC          E(Eh)            E(eV)
   0   2.0000    -452.807198    -12321.5103
   1   2.0000     -57.550587     -1566.0311
   2   2.0000     -51.621044     -1404.6800
   3   2.0000     -51.620197     -1404.6570
   4   2.0000     -51.618784     -1404.6185
   5   2.0000     -10.028873      -272.8995
   6   2.0000     -10.000236      -272.1203
   7   2.0000      -9.999779      -272.1078
   8   2.0000      -9.998363      -272.0693
   9   2.0000      -9.998236      -272.0658
  10   2.0000      -9.993874      -271.9471
  11   2.0000      -7.615187      -207.2198
  12   2.0000      -5.575976      -151.7300
  13   2.0000      -5.572110      -151.6248
  14   2.0000      -5.565257      -151.4383
  15   2.0000      -1.981252       -53.9126
  16   2.0000      -1.981234       -53.9121
  17   2.0000      -1.975276       -53.7500
  18   2.0000      -1.972325       -53.6697
  19   2.0000      -1.971380       -53.6440
  20   2.0000      -0.805798       -21.9269
  21   2.0000      -0.717876       -19.5344
  22   2.0000      -0.699734       -19.0407
  23   2.0000      -0.642542       -17.4845
  24   2.0000      -0.566481       -15.4147
  25   2.0000      -0.547024       -14.8853
  26   2.0000      -0.477446       -12.9920
  27   2.0000      -0.424315       -11.5462
  28   2.0000      -0.416847       -11.3430
  29   2.0000      -0.390697       -10.6314
  30   2.0000      -0.376390       -10.2421
  31   2.0000      -0.347656        -9.4602
  32   2.0000      -0.339423        -9.2362
  33   2.0000      -0.316269        -8.6061
  34   2.0000      -0.294941        -8.0257
  35   2.0000      -0.264342        -7.1931
  36   2.0000      -0.238853        -6.4995
  37   2.0000      -0.195888        -5.3304
  38   0.0000      -0.045862        -1.2480
  39   0.0000      -0.043247        -1.1768
  40   0.0000      -0.038463        -1.0466
  41   0.0000      -0.010265        -0.2793
  42   0.0000       0.005520         0.1502

MULLIKEN ATOMIC CHARGES
-----------------------
   0 C :    0.127398
   1 C :    0.147215
   2 C :   -0.165344
   3 C :   -0.147786
   4 C :   -0.099592
   5 C :   -0.071370
   6 Se:   -0.210089
   7 H :    0.044957
   8 H :    0.047622
   9 H :    0.092271
  10 H :    0.090764
  11 H :    0.089023
  12 H :    0.054931
Sum of atomic charges:    0.0000000

LOEWDIN ATOMIC CHARGES
----------------------
   0 C :   -0.566547
   1 C :   -0.041940
   2 C :    0.010659
   3 C :    0.007122
   4 C :    0.010154
   5 C :   -0.054058
   6 Se:    0.918079
   7 H :   -0.255336
   8 H :   -0.013374
   9 H :   -0.000779
  10 H :   -0.004980
  11 H :   -0.000704
  12 H :   -0.008298

  Mayer bond orders larger than 0.100000
B(  0-C ,  1-C ) :   1.0886 B(  0-C ,  5-C ) :   1.1892 B(  0-C ,  6-Se) :   1.0338
B(  1-C ,  2-C ) :   1.2372 B(  1-C ,  5-C ) :   0.1054 B(  1-C ,  8-H ) :   1.0301
B(  2-C ,  3-C ) :   1.2234 B(  2-C ,  9-H ) :   1.0377 B(  3-C ,  4-C ) :   1.2137
B(  3-C , 10-H ) :   1.0466 B(  4-C ,  5-C ) :   1.2335 B(  4-C , 11-H ) :   1.0442
B(  5-C , 12-H ) :   1.0458 B(  6-Se,  7-H ) :   0.9943

Dispersion correction           -0.018460940
FINAL SINGLE POINT ENERGY     -2633.876954735636

DIPOLE MOMENT
-------------
                                X             Y             Z
Electronic contribution:    -25.07742      -1.52121      -0.00003
Nuclear contribution   :     25.40592       1.71219       0.00003
                        -----------------------------------------
Total Dipole Moment    :      0.32850       0.19099       0.00000
                        -----------------------------------------
Magnitude (a.u.)       :      0.37999
Magnitude (Debye)      :      0.96585

Rotational constants in cm-1:     0.185431     0.032154     0.027403
Rotational constants in MHz :  5559.086830   963.964760   821.511792

                             ****ORCA TERMINATED NORMALLY****
TOTAL RUN TIME: 0 days 0 hours 0 minutes 7 seconds 283 msec
