                         Program Version 4.2.0 -  RELEASE  -
|  1> #
|  2> # MOR24_pme3 TPSS-D3BJ/Def2-TZVPPD
|  3> #
|  4> ! tpss d3bj def2-tzvppd def2/j grid4 nofinalgrid
|  5>
|  6> *xyz 0 1
|  7> P        0.000014   -0.000022   -0.608033
|  8> C        1.496142   -0.644859    0.281510
|  9> H        1.381991   -0.595756    1.371521
| 10> H        2.374450   -0.059896   -0.010082
| 11> H        1.674284   -1.684941   -0.010215
| 12> C       -0.189596    1.618079    0.281483
| 13> H       -0.175035    1.494773    1.371519
| 14> H       -1.135286    2.086341   -0.010098
| 15> H        0.622176    2.292253   -0.010285
| 16> C       -1.306577   -0.973225    0.281488
| 17> H       -1.206743   -0.899098    1.371498
| 18> H       -1.239562   -2.026308   -0.010273
| 19> H       -2.296301   -0.607013   -0.009976
| 20> *
| 21>
| 22> %maxcore 5000
| 23>
| 24> %pal
| 25> nprocs = 24
| 26> end
| 27>
| 28>
| 29>                          ****END OF INPUT****

CARTESIAN COORDINATES (ANGSTROEM)
---------------------------------
  P      0.000014   -0.000022   -0.608033
  C      1.496142   -0.644859    0.281510
  H      1.381991   -0.595756    1.371521
  H      2.374450   -0.059896   -0.010082
  H      1.674284   -1.684941   -0.010215
  C     -0.189596    1.618079    0.281483
  H     -0.175035    1.494773    1.371519
  H     -1.135286    2.086341   -0.010098
  H      0.622176    2.292253   -0.010285
  C     -1.306577   -0.973225    0.281488
  H     -1.206743   -0.899098    1.371498
  H     -1.239562   -2.026308   -0.010273
  H     -2.296301   -0.607013   -0.009976

 Total Charge           Charge          ....    0
 Multiplicity           Mult            ....    1
 Number of Electrons    NEL             ....   42
 Basis Dimension        Dim             ....  312

ORBITAL ENERGIES
----------------

  NO   OCC          E(Eh)            E(eV)
   0   2.0000     -76.571937     -2083.6283
   1   2.0000      -9.982875      -271.6478
   2   2.0000      -9.982874      -271.6478
   3   2.0000      -9.982873      -271.6478
   4   2.0000      -6.346756      -172.7040
   5   2.0000      -4.524177      -123.1091
   6   2.0000      -4.524176      -123.1091
   7   2.0000      -4.521052      -123.0241
   8   2.0000      -0.702517       -19.1165
   9   2.0000      -0.636972       -17.3329
  10   2.0000      -0.636967       -17.3327
  11   2.0000      -0.481425       -13.1002
  12   2.0000      -0.397340       -10.8122
  13   2.0000      -0.385893       -10.5007
  14   2.0000      -0.385887       -10.5005
  15   2.0000      -0.360837        -9.8189
  16   2.0000      -0.360830        -9.8187
  17   2.0000      -0.348891        -9.4938
  18   2.0000      -0.290794        -7.9129
  19   2.0000      -0.290787        -7.9127
  20   2.0000      -0.198526        -5.4022
  21   0.0000      -0.001897        -0.0516
  22   0.0000       0.008175         0.2225
  23   0.0000       0.008188         0.2228
  24   0.0000       0.036448         0.9918
  25   0.0000       0.051365         1.3977

MULLIKEN ATOMIC CHARGES
-----------------------
   0 P :   -0.191475
   1 C :   -0.250908
   2 H :    0.129816
   3 H :    0.092581
   4 H :    0.092031
   5 C :   -0.248538
   6 H :    0.129104
   7 H :    0.092195
   8 H :    0.091545
   9 C :   -0.249950
  10 H :    0.129486
  11 H :    0.091939
  12 H :    0.092174
Sum of atomic charges:    0.0000000

LOEWDIN ATOMIC CHARGES
----------------------
   0 P :    0.861056
   1 C :   -0.088778
   2 H :   -0.061630
   3 H :   -0.068303
   4 H :   -0.068303
   5 C :   -0.088774
   6 H :   -0.061629
   7 H :   -0.068302
   8 H :   -0.068314
   9 C :   -0.088763
  10 H :   -0.061637
  11 H :   -0.068319
  12 H :   -0.068305

  Mayer bond orders larger than 0.100000
B(  0-P ,  1-C ) :   0.9059 B(  0-P ,  5-C ) :   0.9058 B(  0-P ,  9-C ) :   0.9059
B(  1-C ,  2-H ) :   0.9487 B(  1-C ,  3-H ) :   0.9991 B(  1-C ,  4-H ) :   0.9993
B(  5-C ,  6-H ) :   0.9484 B(  5-C ,  7-H ) :   0.9994 B(  5-C ,  8-H ) :   0.9994
B(  9-C , 10-H ) :   0.9489 B(  9-C , 11-H ) :   0.9994 B(  9-C , 12-H ) :   0.9988

Dispersion correction           -0.012875988
FINAL SINGLE POINT ENERGY      -461.217044250308

DIPOLE MOMENT
-------------
                                X             Y             Z
Electronic contribution:      0.00012      -0.00038      -4.31848
Nuclear contribution   :     -0.00004       0.00039       4.80319
                        -----------------------------------------
Total Dipole Moment    :      0.00008       0.00001       0.48471
                        -----------------------------------------
Magnitude (a.u.)       :      0.48471
Magnitude (Debye)      :      1.23203

Rotational constants in cm-1:     0.191522     0.191510     0.123399
Rotational constants in MHz :  5741.693239  5741.320508  3699.411170

                             ****ORCA TERMINATED NORMALLY****
TOTAL RUN TIME: 0 days 0 hours 0 minutes 4 seconds 914 msec
