                         Program Version 4.2.0 -  RELEASE  -
|  1> #
|  2> # MOR25_pr01 TPSS-D3BJ/Def2-TZVPPD
|  3> #
|  4> ! tpss d3bj def2-tzvppd def2/j grid4 nofinalgrid
|  5>
|  6> *xyz 0 1
|  7> Cr      -0.000002    0.000001   -0.000002
|  8> O       -2.697134   -0.646688    1.294578
|  9> C       -1.683963   -0.403751    0.808266
| 10> C        0.796729   -1.469777    0.925736
| 11> O        1.276107   -2.354083    1.482723
| 12> C        1.683955    0.403738   -0.808274
| 13> O        2.697131    0.646654   -1.294589
| 14> C        0.426065    1.152703    1.463476
| 15> O        0.682414    1.846242    2.344001
| 16> C       -0.426072   -1.152714   -1.463481
| 17> O       -0.682416   -1.846267   -2.343994
| 18> C       -0.796727    1.469805   -0.925736
| 19> O       -1.276085    2.354134   -1.482702
| 20> *
| 21>
| 22> %maxcore 5000
| 23>
| 24> %pal
| 25> nprocs = 24
| 26> end
| 27>
| 28>
| 29>                          ****END OF INPUT****

CARTESIAN COORDINATES (ANGSTROEM)
---------------------------------
  Cr    -0.000002    0.000001   -0.000002
  O     -2.697134   -0.646688    1.294578
  C     -1.683963   -0.403751    0.808266
  C      0.796729   -1.469777    0.925736
  O      1.276107   -2.354083    1.482723
  C      1.683955    0.403738   -0.808274
  O      2.697131    0.646654   -1.294589
  C      0.426065    1.152703    1.463476
  O      0.682414    1.846242    2.344001
  C     -0.426072   -1.152714   -1.463481
  O     -0.682416   -1.846267   -2.343994
  C     -0.796727    1.469805   -0.925736
  O     -1.276085    2.354134   -1.482702

 Total Charge           Charge          ....    0
 Multiplicity           Mult            ....    1
 Number of Electrons    NEL             ....  108
 Basis Dimension        Dim             ....  529

ORBITAL ENERGIES
----------------

  NO   OCC          E(Eh)            E(eV)
   0   2.0000    -214.988313     -5850.1294
   1   2.0000     -24.411785      -664.2784
   2   2.0000     -20.718741      -563.7856
   3   2.0000     -20.718740      -563.7856
   4   2.0000     -20.718739      -563.7856
   5   2.0000     -18.978973      -516.4441
   6   2.0000     -18.978971      -516.4441
   7   2.0000     -18.978971      -516.4440
   8   2.0000     -18.978969      -516.4440
   9   2.0000     -18.978967      -516.4439
  10   2.0000     -18.978963      -516.4438
  11   2.0000     -10.114603      -275.2323
  12   2.0000     -10.114600      -275.2323
  13   2.0000     -10.114598      -275.2322
  14   2.0000     -10.114596      -275.2321
  15   2.0000     -10.114593      -275.2321
  16   2.0000     -10.114589      -275.2320
  17   2.0000      -2.788257       -75.8723
  18   2.0000      -1.761014       -47.9196
  19   2.0000      -1.761013       -47.9196
  20   2.0000      -1.761012       -47.9196
  21   2.0000      -1.080507       -29.4021
  22   2.0000      -1.079503       -29.3748
  23   2.0000      -1.079501       -29.3747
  24   2.0000      -1.079501       -29.3747
  25   2.0000      -1.079112       -29.3641
  26   2.0000      -1.079111       -29.3641
  27   2.0000      -0.577862       -15.7244
  28   2.0000      -0.530811       -14.4441
  29   2.0000      -0.530810       -14.4441
  30   2.0000      -0.530809       -14.4441
  31   2.0000      -0.527356       -14.3501
  32   2.0000      -0.527355       -14.3501
  33   2.0000      -0.462720       -12.5912
  34   2.0000      -0.444718       -12.1014
  35   2.0000      -0.444717       -12.1014
  36   2.0000      -0.444717       -12.1014
  37   2.0000      -0.441353       -12.0098
  38   2.0000      -0.441352       -12.0098
  39   2.0000      -0.441351       -12.0098
  40   2.0000      -0.426321       -11.6008
  41   2.0000      -0.426320       -11.6007
  42   2.0000      -0.426319       -11.6007
  43   2.0000      -0.419568       -11.4170
  44   2.0000      -0.419568       -11.4170
  45   2.0000      -0.419567       -11.4170
  46   2.0000      -0.416672       -11.3382
  47   2.0000      -0.416664       -11.3380
  48   2.0000      -0.382618       -10.4116
  49   2.0000      -0.382616       -10.4115
  50   2.0000      -0.382611       -10.4114
  51   2.0000      -0.237892        -6.4734
  52   2.0000      -0.237883        -6.4731
  53   2.0000      -0.237882        -6.4731
  54   0.0000      -0.088964        -2.4208
  55   0.0000      -0.088962        -2.4208
  56   0.0000      -0.088961        -2.4207
  57   0.0000      -0.072336        -1.9683
  58   0.0000      -0.072333        -1.9683

MULLIKEN ATOMIC CHARGES
-----------------------
   0 Cr:   -2.010420
   1 O :   -0.305645
   2 C :    0.640229
   3 C :    0.640971
   4 O :   -0.305694
   5 C :    0.640190
   6 O :   -0.305681
   7 C :    0.640589
   8 O :   -0.305581
   9 C :    0.641089
  10 O :   -0.305718
  11 C :    0.641477
  12 O :   -0.305803
Sum of atomic charges:   -0.0000000

LOEWDIN ATOMIC CHARGES
----------------------
   0 Cr:   -0.431168
   1 O :    0.168324
   2 C :   -0.096457
   3 C :   -0.096451
   4 O :    0.168318
   5 C :   -0.096461
   6 O :    0.168322
   7 C :   -0.096470
   8 O :    0.168312
   9 C :   -0.096463
  10 O :    0.168314
  11 C :   -0.096438
  12 O :    0.168318

  Mayer bond orders larger than 0.100000
B(  0-Cr,  1-O ) :   0.2413 B(  0-Cr,  2-C ) :   0.8711 B(  0-Cr,  3-C ) :   0.8698
B(  0-Cr,  4-O ) :   0.2413 B(  0-Cr,  5-C ) :   0.8712 B(  0-Cr,  6-O ) :   0.2413
B(  0-Cr,  7-C ) :   0.8696 B(  0-Cr,  8-O ) :   0.2412 B(  0-Cr,  9-C ) :   0.8696
B(  0-Cr, 10-O ) :   0.2415 B(  0-Cr, 11-C ) :   0.8694 B(  0-Cr, 12-O ) :   0.2416
B(  1-O ,  2-C ) :   1.9278 B(  2-C ,  5-C ) :   0.1007 B(  3-C ,  4-O ) :   1.9275
B(  3-C , 11-C ) :   0.1010 B(  5-C ,  6-O ) :   1.9278 B(  7-C ,  8-O ) :   1.9273
B(  7-C ,  9-C ) :   0.1011 B(  9-C , 10-O ) :   1.9271 B( 11-C , 12-O ) :   1.9275

Dispersion correction           -0.025878637
FINAL SINGLE POINT ENERGY     -1725.084037883303

DIPOLE MOMENT
-------------
                                X             Y             Z
Electronic contribution:     -0.00005       0.00002      -0.00005
Nuclear contribution   :      0.00001      -0.00000       0.00001
                        -----------------------------------------
Total Dipole Moment    :     -0.00004       0.00001      -0.00004
                        -----------------------------------------
Magnitude (a.u.)       :      0.00006
Magnitude (Debye)      :      0.00015

Rotational constants in cm-1:     0.021751     0.021751     0.021751
Rotational constants in MHz :   652.090818   652.088663   652.088001

                             ****ORCA TERMINATED NORMALLY****
TOTAL RUN TIME: 0 days 0 hours 0 minutes 11 seconds 252 msec
