                         Program Version 4.2.0 -  RELEASE  -
|  1> #
|  2> # MOR27_pr07 TPSS-D3BJ/Def2-TZVPPD
|  3> #
|  4> ! tpss d3bj def2-tzvppd def2/j grid4 nofinalgrid
|  5>
|  6> *xyz 0 1
|  7> W        0.000153   -0.023654    0.145460
|  8> C       -0.000249    1.935753    0.684175
|  9> O       -0.000602    3.038332    1.069126
| 10> C        0.000042    0.319115   -1.817511
| 11> O        0.000023    0.516387   -2.971186
| 12> C        0.000186   -2.057627    0.000209
| 13> O        0.000001   -3.223688    0.015338
| 14> H       -0.422672   -0.342863    1.975704
| 15> H        0.423087   -0.343070    1.976292
| 16> P        2.499044    0.051189    0.053466
| 17> C        3.398497   -0.579400    1.568536
| 18> H        4.468576   -0.564735    1.332934
| 19> C        3.357030   -0.829661   -1.379272
| 20> H        3.371948   -0.051400   -2.154068
| 21> C        3.157630    1.804169   -0.095931
| 22> H        2.704128    2.295578    0.773940
| 23> C       -3.158190    1.803853   -0.098051
| 24> P       -2.499342    0.051185    0.053494
| 25> H       -4.468329   -0.563916    1.334439
| 26> H       -2.705915    2.296277    0.771888
| 27> C       -3.357947   -0.831337   -1.377937
| 28> H       -3.374541   -0.053484   -2.153122
| 29> C        4.805704   -1.269244   -1.108536
| 30> H        5.254950   -1.620204   -2.045252
| 31> H        4.835898   -2.103732   -0.400453
| 32> H        5.434431   -0.467933   -0.716341
| 33> C        2.560788   -2.016752   -1.935473
| 34> H        3.061937   -2.400142   -2.832615
| 35> H        1.542966   -1.732188   -2.204810
| 36> H        2.502084   -2.833493   -1.209948
| 37> C        4.680481    1.979802   -0.012340
| 38> H        4.916239    3.046506    0.083978
| 39> H        5.169829    1.620688   -0.922848
| 40> H        5.123446    1.463622    0.844533
| 41> C        2.617881    2.501599   -1.352306
| 42> H        2.906367    3.558914   -1.336615
| 43> H        1.529775    2.443192   -1.410983
| 44> H        3.032951    2.058398   -2.264167
| 45> C        3.156179    0.325190    2.783070
| 46> H        3.624905   -0.113517    3.671755
| 47> H        2.084721    0.431553    2.987984
| 48> H        3.570907    1.327076    2.642068
| 49> C        2.983676   -2.024266    1.875196
| 50> H        3.139448   -2.690345    1.021876
| 51> H        1.922767   -2.073885    2.140278
| 52> H        3.565975   -2.409562    2.720613
| 53> C       -4.681242    1.978525   -0.016373
| 54> H       -5.169268    1.617830   -0.926977
| 55> H       -4.917927    3.045167    0.078302
| 56> H       -5.124772    1.463082    0.840662
| 57> C       -2.617453    2.500423   -1.354472
| 58> H       -3.030239    2.055355   -2.266464
| 59> C       -2.982294   -2.021525    1.878658
| 60> H       -1.529170    2.443643   -1.411239
| 61> H       -2.907637    3.557302   -1.340680
| 62> C       -3.156106    0.329464    2.782654
| 63> H       -1.921474   -2.069894    2.144316
| 64> H       -3.564665   -2.406148    2.724324
| 65> H       -3.137027   -2.688908    1.026165
| 66> C       -3.398186   -0.577432    1.569777
| 67> H       -3.622276   -0.109074    3.672772
| 68> H       -3.573608    1.330095    2.640827
| 69> H       -2.084555    0.438855    2.985621
| 70> C       -4.805869   -1.272290   -1.105425
| 71> H       -5.255612   -1.624537   -2.041419
| 72> H       -5.435110   -0.471325   -0.713333
| 73> H       -4.834472   -2.106207   -0.396602
| 74> C       -2.561058   -2.017888   -1.934324
| 75> H       -2.500954   -2.834229   -1.208460
| 76> H       -1.543733   -1.732464   -2.204653
| 77> H       -3.062606   -2.402180   -2.830854
| 78> *
| 79>
| 80> %maxcore 5000
| 81>
| 82> %pal
| 83> nprocs = 24
| 84> end
| 85>
| 86>
| 87>                          ****END OF INPUT****

CARTESIAN COORDINATES (ANGSTROEM)
---------------------------------
  W      0.000153   -0.023654    0.145460
  C     -0.000249    1.935753    0.684175
  O     -0.000602    3.038332    1.069126
  C      0.000042    0.319115   -1.817511
  O      0.000023    0.516387   -2.971186
  C      0.000186   -2.057627    0.000209
  O      0.000001   -3.223688    0.015338
  H     -0.422672   -0.342863    1.975704
  H      0.423087   -0.343070    1.976292
  P      2.499044    0.051189    0.053466
  C      3.398497   -0.579400    1.568536
  H      4.468576   -0.564735    1.332934
  C      3.357030   -0.829661   -1.379272
  H      3.371948   -0.051400   -2.154068
  C      3.157630    1.804169   -0.095931
  H      2.704128    2.295578    0.773940
  C     -3.158190    1.803853   -0.098051
  P     -2.499342    0.051185    0.053494
  H     -4.468329   -0.563916    1.334439
  H     -2.705915    2.296277    0.771888
  C     -3.357947   -0.831337   -1.377937
  H     -3.374541   -0.053484   -2.153122
  C      4.805704   -1.269244   -1.108536
  H      5.254950   -1.620204   -2.045252
  H      4.835898   -2.103732   -0.400453
  H      5.434431   -0.467933   -0.716341
  C      2.560788   -2.016752   -1.935473
  H      3.061937   -2.400142   -2.832615
  H      1.542966   -1.732188   -2.204810
  H      2.502084   -2.833493   -1.209948
  C      4.680481    1.979802   -0.012340
  H      4.916239    3.046506    0.083978
  H      5.169829    1.620688   -0.922848
  H      5.123446    1.463622    0.844533
  C      2.617881    2.501599   -1.352306
  H      2.906367    3.558914   -1.336615
  H      1.529775    2.443192   -1.410983
  H      3.032951    2.058398   -2.264167
  C      3.156179    0.325190    2.783070
  H      3.624905   -0.113517    3.671755
  H      2.084721    0.431553    2.987984
  H      3.570907    1.327076    2.642068
  C      2.983676   -2.024266    1.875196
  H      3.139448   -2.690345    1.021876
  H      1.922767   -2.073885    2.140278
  H      3.565975   -2.409562    2.720613
  C     -4.681242    1.978525   -0.016373
  H     -5.169268    1.617830   -0.926977
  H     -4.917927    3.045167    0.078302
  H     -5.124772    1.463082    0.840662
  C     -2.617453    2.500423   -1.354472
  H     -3.030239    2.055355   -2.266464
  C     -2.982294   -2.021525    1.878658
  H     -1.529170    2.443643   -1.411239
  H     -2.907637    3.557302   -1.340680
  C     -3.156106    0.329464    2.782654
  H     -1.921474   -2.069894    2.144316
  H     -3.564665   -2.406148    2.724324
  H     -3.137027   -2.688908    1.026165
  C     -3.398186   -0.577432    1.569777
  H     -3.622276   -0.109074    3.672772
  H     -3.573608    1.330095    2.640827
  H     -2.084555    0.438855    2.985621
  C     -4.805869   -1.272290   -1.105425
  H     -5.255612   -1.624537   -2.041419
  H     -5.435110   -0.471325   -0.713333
  H     -4.834472   -2.106207   -0.396602
  C     -2.561058   -2.017888   -1.934324
  H     -2.500954   -2.834229   -1.208460
  H     -1.543733   -1.732464   -2.204653
  H     -3.062606   -2.402180   -2.830854

 Total Charge           Charge          ....    0
 Multiplicity           Mult            ....    1
 Number of Electrons    NEL             ....  238
 Basis Dimension        Dim             .... 1800

ORBITAL ENERGIES
----------------

  NO   OCC          E(Eh)            E(eV)
   0   2.0000     -76.597329     -2084.3193
   1   2.0000     -76.597306     -2084.3187
   2   2.0000     -18.921122      -514.8699
   3   2.0000     -18.919226      -514.8183
   4   2.0000     -18.910010      -514.5675
   5   2.0000     -10.053211      -273.5618
   6   2.0000     -10.052361      -273.5387
   7   2.0000     -10.047516      -273.4068
   8   2.0000     -10.000397      -272.1246
   9   2.0000     -10.000381      -272.1242
  10   2.0000      -9.999862      -272.1101
  11   2.0000      -9.999835      -272.1093
  12   2.0000      -9.998449      -272.0716
  13   2.0000      -9.998438      -272.0713
  14   2.0000      -9.986926      -271.7581
  15   2.0000      -9.986925      -271.7580
  16   2.0000      -9.986507      -271.7467
  17   2.0000      -9.986491      -271.7462
  18   2.0000      -9.985463      -271.7183
  19   2.0000      -9.985448      -271.7179
  20   2.0000      -9.984142      -271.6823
  21   2.0000      -9.984124      -271.6818
  22   2.0000      -9.977340      -271.4972
  23   2.0000      -9.977338      -271.4972
  24   2.0000      -9.974034      -271.4073
  25   2.0000      -9.974027      -271.4071
  26   2.0000      -6.370591      -173.3526
  27   2.0000      -6.370570      -173.3520
  28   2.0000      -4.548070      -123.7593
  29   2.0000      -4.548049      -123.7587
  30   2.0000      -4.548031      -123.7582
  31   2.0000      -4.548011      -123.7577
  32   2.0000      -4.545567      -123.6912
  33   2.0000      -4.545546      -123.6906
  34   2.0000      -2.801831       -76.2417
  35   2.0000      -1.486337       -40.4453
  36   2.0000      -1.483763       -40.3752
  37   2.0000      -1.476460       -40.1765
  38   2.0000      -1.016887       -27.6709
  39   2.0000      -1.015862       -27.6430
  40   2.0000      -1.006486       -27.3879
  41   2.0000      -0.760198       -20.6860
  42   2.0000      -0.759782       -20.6747
  43   2.0000      -0.730312       -19.8728
  44   2.0000      -0.730267       -19.8716
  45   2.0000      -0.727504       -19.7964
  46   2.0000      -0.727474       -19.7956
  47   2.0000      -0.641212       -17.4483
  48   2.0000      -0.641046       -17.4437
  49   2.0000      -0.638805       -17.3828
  50   2.0000      -0.638460       -17.3734
  51   2.0000      -0.631826       -17.1929
  52   2.0000      -0.631582       -17.1862
  53   2.0000      -0.603842       -16.4314
  54   2.0000      -0.601661       -16.3720
  55   2.0000      -0.542060       -14.7502
  56   2.0000      -0.541763       -14.7421
  57   2.0000      -0.540695       -14.7131
  58   2.0000      -0.540102       -14.6969
  59   2.0000      -0.515503       -14.0276
  60   2.0000      -0.484027       -13.1711
  61   2.0000      -0.478252       -13.0139
  62   2.0000      -0.475471       -12.9382
  63   2.0000      -0.473164       -12.8754
  64   2.0000      -0.456652       -12.4261
  65   2.0000      -0.434664       -11.8278
  66   2.0000      -0.432575       -11.7710
  67   2.0000      -0.430956       -11.7269
  68   2.0000      -0.425121       -11.5681
  69   2.0000      -0.418450       -11.3866
  70   2.0000      -0.418331       -11.3834
  71   2.0000      -0.405834       -11.0433
  72   2.0000      -0.402505       -10.9527
  73   2.0000      -0.399762       -10.8781
  74   2.0000      -0.395403       -10.7595
  75   2.0000      -0.391396       -10.6504
  76   2.0000      -0.382549       -10.4097
  77   2.0000      -0.380992       -10.3673
  78   2.0000      -0.380588       -10.3563
  79   2.0000      -0.379949       -10.3389
  80   2.0000      -0.375946       -10.2300
  81   2.0000      -0.375209       -10.2099
  82   2.0000      -0.372110       -10.1256
  83   2.0000      -0.367897       -10.0110
  84   2.0000      -0.366102        -9.9621
  85   2.0000      -0.364918        -9.9299
  86   2.0000      -0.362288        -9.8584
  87   2.0000      -0.359897        -9.7933
  88   2.0000      -0.359799        -9.7906
  89   2.0000      -0.356571        -9.7028
  90   2.0000      -0.355688        -9.6788
  91   2.0000      -0.353303        -9.6139
  92   2.0000      -0.348782        -9.4908
  93   2.0000      -0.348582        -9.4854
  94   2.0000      -0.348175        -9.4743
  95   2.0000      -0.345122        -9.3913
  96   2.0000      -0.344396        -9.3715
  97   2.0000      -0.327309        -8.9065
  98   2.0000      -0.319369        -8.6905
  99   2.0000      -0.319217        -8.6863
 100   2.0000      -0.319067        -8.6823
 101   2.0000      -0.317768        -8.6469
 102   2.0000      -0.314824        -8.5668
 103   2.0000      -0.313016        -8.5176
 104   2.0000      -0.310418        -8.4469
 105   2.0000      -0.309151        -8.4124
 106   2.0000      -0.305440        -8.3114
 107   2.0000      -0.304851        -8.2954
 108   2.0000      -0.303940        -8.2706
 109   2.0000      -0.303359        -8.2548
 110   2.0000      -0.268653        -7.3104
 111   2.0000      -0.267381        -7.2758
 112   2.0000      -0.265105        -7.2139
 113   2.0000      -0.264996        -7.2109
 114   2.0000      -0.262969        -7.1557
 115   2.0000      -0.227787        -6.1984
 116   2.0000      -0.176991        -4.8162
 117   2.0000      -0.170448        -4.6381
 118   2.0000      -0.165999        -4.5171
 119   0.0000      -0.056849        -1.5469
 120   0.0000      -0.050403        -1.3715
 121   0.0000      -0.028138        -0.7657
 122   0.0000      -0.022745        -0.6189
 123   0.0000      -0.012786        -0.3479

MULLIKEN ATOMIC CHARGES
-----------------------
   0 W :   -5.103422
   1 C :    1.371943
   2 O :   -0.537306
   3 C :    1.042637
   4 O :   -0.604397
   5 C :    1.679308
   6 O :   -0.573555
   7 H :    0.212765
   8 H :    0.187550
   9 P :    0.506900
  10 C :    0.419818
  11 H :    0.285403
  12 C :    1.084934
  13 H :    0.078289
  14 C :    0.393434
  15 H :    0.154857
  16 C :    0.394033
  17 P :    0.517193
  18 H :    0.286524
  19 H :    0.156220
  20 C :    1.078014
  21 H :    0.080556
  22 C :   -0.622521
  23 H :    0.110150
  24 H :    0.133228
  25 H :    0.120235
  26 C :   -0.625110
  27 H :    0.088038
  28 H :    0.111900
  29 H :    0.140682
  30 C :   -0.728156
  31 H :    0.076024
  32 H :    0.142962
  33 H :    0.153254
  34 C :   -0.573623
  35 H :    0.043709
  36 H :    0.123871
  37 H :    0.149327
  38 C :   -0.596877
  39 H :    0.102469
  40 H :    0.103901
  41 H :    0.135093
  42 C :   -0.683020
  43 H :    0.121043
  44 H :    0.104535
  45 H :    0.106476
  46 C :   -0.731664
  47 H :    0.142766
  48 H :    0.076263
  49 H :    0.153252
  50 C :   -0.564934
  51 H :    0.149539
  52 C :   -0.681858
  53 H :    0.120987
  54 H :    0.043012
  55 C :   -0.598977
  56 H :    0.102259
  57 H :    0.106418
  58 H :    0.121855
  59 C :    0.418930
  60 H :    0.102184
  61 H :    0.135042
  62 H :    0.104440
  63 C :   -0.625906
  64 H :    0.109045
  65 H :    0.121244
  66 H :    0.133364
  67 C :   -0.627094
  68 H :    0.140822
  69 H :    0.111160
  70 H :    0.088560
Sum of atomic charges:   -0.0000000

LOEWDIN ATOMIC CHARGES
----------------------
   0 W :    0.295199
   1 C :   -0.310897
   2 O :    0.065377
   3 C :   -0.355372
   4 O :    0.056169
   5 C :   -0.312261
   6 O :    0.059658
   7 H :    0.011777
   8 H :    0.012115
   9 P :    1.058030
  10 C :   -0.370844
  11 H :   -0.028451
  12 C :   -0.324073
  13 H :   -0.018326
  14 C :   -0.356758
  15 H :   -0.029133
  16 C :   -0.356780
  17 P :    1.058254
  18 H :   -0.028474
  19 H :   -0.029061
  20 C :   -0.324086
  21 H :   -0.018327
  22 C :    0.123736
  23 H :   -0.006241
  24 H :   -0.017362
  25 H :   -0.039409
  26 C :    0.113275
  27 H :   -0.006322
  28 H :   -0.050651
  29 H :   -0.025104
  30 C :    0.124115
  31 H :   -0.006618
  32 H :   -0.019392
  33 H :   -0.028584
  34 C :    0.117984
  35 H :   -0.004582
  36 H :   -0.052723
  37 H :   -0.016587
  38 C :    0.120656
  39 H :   -0.007588
  40 H :   -0.032933
  41 H :   -0.024774
  42 C :    0.118745
  43 H :   -0.030183
  44 H :   -0.033734
  45 H :   -0.007178
  46 C :    0.124089
  47 H :   -0.019328
  48 H :   -0.006626
  49 H :   -0.028572
  50 C :    0.117997
  51 H :   -0.016584
  52 C :    0.118682
  53 H :   -0.052729
  54 H :   -0.004596
  55 C :    0.120634
  56 H :   -0.033769
  57 H :   -0.007188
  58 H :   -0.030146
  59 C :   -0.370861
  60 H :   -0.007605
  61 H :   -0.024742
  62 H :   -0.032863
  63 C :    0.123667
  64 H :   -0.006234
  65 H :   -0.039384
  66 H :   -0.017360
  67 C :    0.113254
  68 H :   -0.025096
  69 H :   -0.050594
  70 H :   -0.006332

  Mayer bond orders larger than 0.100000
B(  0-W ,  1-C ) :   1.5011 B(  0-W ,  2-O ) :   0.1488 B(  0-W ,  3-C ) :   1.6668
B(  0-W ,  5-C ) :   1.2706 B(  0-W ,  6-O ) :   0.1309 B(  0-W ,  7-H ) :   0.4711
B(  0-W ,  8-H ) :   0.4909 B(  0-W ,  9-P ) :  -0.3379 B(  0-W , 10-C ) :   0.3044
B(  0-W , 14-C ) :   0.1261 B(  0-W , 16-C ) :   0.1251 B(  0-W , 17-P ) :  -0.3120
B(  0-W , 26-C ) :   0.1195 B(  0-W , 34-C ) :   0.1230 B(  0-W , 50-C ) :   0.1252
B(  0-W , 59-C ) :   0.2970 B(  0-W , 67-C ) :   0.1158 B(  1-C ,  2-O ) :   1.5136
B(  1-C ,  3-C ) :  -0.2367 B(  1-C ,  5-C ) :   0.1121 B(  3-C ,  4-O ) :   1.4210
B(  3-C ,  5-C ) :  -0.1129 B(  3-C ,  9-P ) :   0.2521 B(  3-C , 17-P ) :   0.2441
B(  5-C ,  6-O ) :   1.5261 B(  7-H ,  8-H ) :   0.7837 B(  7-H ,  9-P ) :   0.1112
B(  7-H , 12-C ) :   0.1024 B(  7-H , 17-P ) :  -0.1764 B(  7-H , 20-C ) :  -0.1118
B(  8-H ,  9-P ) :  -0.1780 B(  8-H , 12-C ) :  -0.1148 B(  8-H , 17-P ) :   0.1133
B(  8-H , 20-C ) :   0.1001 B(  9-P , 10-C ) :   0.6901 B(  9-P , 12-C ) :   0.6252
B(  9-P , 14-C ) :   0.7653 B(  9-P , 17-P ) :  -0.3224 B(  9-P , 20-C ) :   0.1216
B(  9-P , 26-C ) :   0.2282 B(  9-P , 30-C ) :   0.1955 B(  9-P , 34-C ) :   0.1195
B(  9-P , 38-C ) :   0.1506 B( 10-C , 11-H ) :   0.7083 B( 10-C , 12-C ) :   0.1951
B( 10-C , 14-C ) :   0.4147 B( 10-C , 38-C ) :   0.7213 B( 10-C , 42-C ) :   0.7341
B( 12-C , 13-H ) :   0.7424 B( 12-C , 14-C ) :   0.3395 B( 12-C , 17-P ) :   0.1244
B( 12-C , 22-C ) :   0.5295 B( 12-C , 26-C ) :   0.6678 B( 14-C , 15-H ) :   0.8001
B( 14-C , 30-C ) :   0.5996 B( 14-C , 34-C ) :   0.6908 B( 16-C , 17-P ) :   0.7673
B( 16-C , 19-H ) :   0.7985 B( 16-C , 20-C ) :   0.3431 B( 16-C , 46-C ) :   0.6012
B( 16-C , 50-C ) :   0.6926 B( 16-C , 59-C ) :   0.4088 B( 17-P , 20-C ) :   0.6346
B( 17-P , 46-C ) :   0.1949 B( 17-P , 50-C ) :   0.1163 B( 17-P , 55-C ) :   0.1489
B( 17-P , 59-C ) :   0.7035 B( 17-P , 67-C ) :   0.2308 B( 18-H , 59-C ) :   0.7091
B( 20-C , 21-H ) :   0.7433 B( 20-C , 59-C ) :   0.1971 B( 20-C , 63-C ) :   0.5299
B( 20-C , 67-C ) :   0.6657 B( 22-C , 23-H ) :   0.9450 B( 22-C , 24-H ) :   1.0178
B( 22-C , 25-H ) :   1.0509 B( 22-C , 26-C ) :   0.2751 B( 26-C , 27-H ) :   0.9065
B( 26-C , 28-H ) :   1.1152 B( 26-C , 29-H ) :   0.9468 B( 30-C , 31-H ) :   0.9849
B( 30-C , 32-H ) :   0.9415 B( 30-C , 33-H ) :   0.9395 B( 30-C , 34-C ) :   0.2181
B( 34-C , 35-H ) :   0.8954 B( 34-C , 36-H ) :   1.0744 B( 34-C , 37-H ) :   0.9238
B( 38-C , 39-H ) :   0.9745 B( 38-C , 40-H ) :   0.9754 B( 38-C , 41-H ) :   0.9298
B( 38-C , 42-C ) :   0.1614 B( 42-C , 43-H ) :   0.9786 B( 42-C , 44-H ) :   0.9774
B( 42-C , 45-H ) :   0.9466 B( 46-C , 47-H ) :   0.9419 B( 46-C , 48-H ) :   0.9853
B( 46-C , 49-H ) :   0.9387 B( 46-C , 50-C ) :   0.2186 B( 50-C , 51-H ) :   0.9230
B( 50-C , 53-H ) :   1.0761 B( 50-C , 54-H ) :   0.8964 B( 52-C , 55-C ) :   0.1625
B( 52-C , 56-H ) :   0.9787 B( 52-C , 57-H ) :   0.9463 B( 52-C , 58-H ) :   0.9775
B( 52-C , 59-C ) :   0.7351 B( 55-C , 59-C ) :   0.7202 B( 55-C , 60-H ) :   0.9749
B( 55-C , 61-H ) :   0.9300 B( 55-C , 62-H ) :   0.9760 B( 63-C , 64-H ) :   0.9447
B( 63-C , 65-H ) :   1.0511 B( 63-C , 66-H ) :   1.0185 B( 63-C , 67-C ) :   0.2767
B( 67-C , 68-H ) :   0.9469 B( 67-C , 69-H ) :   1.1145 B( 67-C , 70-H ) :   0.9081

Dispersion correction           -0.150740549
FINAL SINGLE POINT ENERGY     -1803.170811315610

DIPOLE MOMENT
-------------
                                X             Y             Z
Electronic contribution:      0.02009      -1.48537      17.15995
Nuclear contribution   :     -0.02072       1.50197     -16.46211
                        -----------------------------------------
Total Dipole Moment    :     -0.00063       0.01660       0.69784
                        -----------------------------------------
Magnitude (a.u.)       :      0.69804
Magnitude (Debye)      :      1.77428

Rotational constants in cm-1:     0.008070     0.003719     0.003518
Rotational constants in MHz :   241.945038   111.491092   105.477311

                             ****ORCA TERMINATED NORMALLY****
TOTAL RUN TIME: 0 days 0 hours 2 minutes 12 seconds 232 msec
