                         Program Version 4.2.0 -  RELEASE  -
|  1> #
|  2> # MOR28_pr09 TPSS-D3BJ/Def2-TZVPPD
|  3> #
|  4> ! tpss d3bj def2-tzvppd def2/j grid4 nofinalgrid
|  5>
|  6> *xyz 0 1
|  7> Rh       0.002553    0.015324   -0.037445
|  8> P       -2.290286    0.102034   -0.002141
|  9> P        2.295185    0.104741   -0.029108
| 10> H       -0.000447    1.293328    0.830281
| 11> H        0.001130    1.304527   -0.889045
| 12> Cl       0.007749   -2.380443   -0.037879
| 13> C        3.048741    1.714400   -0.468454
| 14> C        3.042509   -0.273930    1.598336
| 15> C        3.097153   -1.069215   -1.172055
| 16> C       -3.110022   -0.330980   -1.580554
| 17> C       -3.050128   -1.025999    1.213911
| 18> C       -3.019556    1.731005    0.405513
| 19> C        4.221249    1.798414   -1.230361
| 20> C        4.789108    3.041134   -1.513476
| 21> C        4.197347    4.208872   -1.032572
| 22> C        3.028536    4.131819   -0.272310
| 23> C        2.452968    2.893237    0.001453
| 24> H        4.686057    0.892043   -1.605584
| 25> H        5.694526    3.094809   -2.111614
| 26> H        4.640059    5.175809   -1.254830
| 27> H        2.559280    5.038271    0.099833
| 28> H        1.532532    2.831516    0.574445
| 29> C        2.492740   -1.274577   -2.419700
| 30> C        3.069210   -2.141848   -3.343202
| 31> C        4.245283   -2.823200   -3.021963
| 32> C        4.842886   -2.633499   -1.775820
| 33> C        4.272633   -1.757382   -0.851682
| 34> H        1.559916   -0.765736   -2.648777
| 35> H        2.592837   -2.299617   -4.306681
| 36> H        4.688326   -3.509606   -3.738122
| 37> H        5.750981   -3.171899   -1.518950
| 38> H        4.733770   -1.615306    0.121218
| 39> C        2.573432   -1.401325    2.291237
| 40> C        3.112349   -1.729837    3.532773
| 41> C        4.110733   -0.934394    4.100320
| 42> C        4.573407    0.190471    3.418246
| 43> C        4.043987    0.520908    2.169837
| 44> H        1.789551   -2.010529    1.847481
| 45> H        2.746524   -2.605505    4.061892
| 46> H        4.523765   -1.189174    5.072491
| 47> H        5.347947    0.814312    3.855909
| 48> H        4.408962    1.396682    1.642408
| 49> C       -4.114004    1.861395    1.269146
| 50> C       -4.661457    3.119187    1.526531
| 51> C       -4.128475    4.254505    0.917253
| 52> C       -3.037090    4.130954    0.054341
| 53> C       -2.480194    2.878757   -0.192845
| 54> H       -4.534614    0.980084    1.743054
| 55> H       -5.505661    3.209295    2.204432
| 56> H       -4.556024    5.232793    1.118339
| 57> H       -2.613755    5.012384   -0.419158
| 58> H       -1.618255    2.782567   -0.846864
| 59> C       -4.156822    0.429958   -2.116482
| 60> C       -4.751801    0.052668   -3.321119
| 61> C       -4.309469   -1.085441   -3.994829
| 62> C       -3.265632   -1.846455   -3.463206
| 63> C       -2.661736   -1.471384   -2.265369
| 64> H       -4.506373    1.315520   -1.594998
| 65> H       -5.561640    0.650007   -3.730969
| 66> H       -4.773990   -1.377169   -4.932751
| 67> H       -2.915705   -2.732129   -3.986302
| 68> H       -1.843939   -2.054854   -1.849211
| 69> C       -2.377196   -1.225504    2.426817
| 70> C       -2.923708   -2.054207    3.402951
| 71> C       -4.138807   -2.701607    3.169380
| 72> C       -4.805427   -2.517892    1.957599
| 73> C       -4.264583   -1.681339    0.980942
| 74> H       -1.416572   -0.742639    2.587014
| 75> H       -2.394478   -2.207926    4.339105
| 76> H       -4.559549   -3.357196    3.926721
| 77> H       -5.744700   -3.030292    1.768738
| 78> H       -4.779554   -1.544060    0.034665
| 79> *
| 80>
| 81> %maxcore 5000
| 82>
| 83> %pal
| 84> nprocs = 24
| 85> end
| 86>
| 87>
| 88>                          ****END OF INPUT****

CARTESIAN COORDINATES (ANGSTROEM)
---------------------------------
  Rh     0.002553    0.015324   -0.037445
  P     -2.290286    0.102034   -0.002141
  P      2.295185    0.104741   -0.029108
  H     -0.000447    1.293328    0.830281
  H      0.001130    1.304527   -0.889045
  Cl     0.007749   -2.380443   -0.037879
  C      3.048741    1.714400   -0.468454
  C      3.042509   -0.273930    1.598336
  C      3.097153   -1.069215   -1.172055
  C     -3.110022   -0.330980   -1.580554
  C     -3.050128   -1.025999    1.213911
  C     -3.019556    1.731005    0.405513
  C      4.221249    1.798414   -1.230361
  C      4.789108    3.041134   -1.513476
  C      4.197347    4.208872   -1.032572
  C      3.028536    4.131819   -0.272310
  C      2.452968    2.893237    0.001453
  H      4.686057    0.892043   -1.605584
  H      5.694526    3.094809   -2.111614
  H      4.640059    5.175809   -1.254830
  H      2.559280    5.038271    0.099833
  H      1.532532    2.831516    0.574445
  C      2.492740   -1.274577   -2.419700
  C      3.069210   -2.141848   -3.343202
  C      4.245283   -2.823200   -3.021963
  C      4.842886   -2.633499   -1.775820
  C      4.272633   -1.757382   -0.851682
  H      1.559916   -0.765736   -2.648777
  H      2.592837   -2.299617   -4.306681
  H      4.688326   -3.509606   -3.738122
  H      5.750981   -3.171899   -1.518950
  H      4.733770   -1.615306    0.121218
  C      2.573432   -1.401325    2.291237
  C      3.112349   -1.729837    3.532773
  C      4.110733   -0.934394    4.100320
  C      4.573407    0.190471    3.418246
  C      4.043987    0.520908    2.169837
  H      1.789551   -2.010529    1.847481
  H      2.746524   -2.605505    4.061892
  H      4.523765   -1.189174    5.072491
  H      5.347947    0.814312    3.855909
  H      4.408962    1.396682    1.642408
  C     -4.114004    1.861395    1.269146
  C     -4.661457    3.119187    1.526531
  C     -4.128475    4.254505    0.917253
  C     -3.037090    4.130954    0.054341
  C     -2.480194    2.878757   -0.192845
  H     -4.534614    0.980084    1.743054
  H     -5.505661    3.209295    2.204432
  H     -4.556024    5.232793    1.118339
  H     -2.613755    5.012384   -0.419158
  H     -1.618255    2.782567   -0.846864
  C     -4.156822    0.429958   -2.116482
  C     -4.751801    0.052668   -3.321119
  C     -4.309469   -1.085441   -3.994829
  C     -3.265632   -1.846455   -3.463206
  C     -2.661736   -1.471384   -2.265369
  H     -4.506373    1.315520   -1.594998
  H     -5.561640    0.650007   -3.730969
  H     -4.773990   -1.377169   -4.932751
  H     -2.915705   -2.732129   -3.986302
  H     -1.843939   -2.054854   -1.849211
  C     -2.377196   -1.225504    2.426817
  C     -2.923708   -2.054207    3.402951
  C     -4.138807   -2.701607    3.169380
  C     -4.805427   -2.517892    1.957599
  C     -4.264583   -1.681339    0.980942
  H     -1.416572   -0.742639    2.587014
  H     -2.394478   -2.207926    4.339105
  H     -4.559549   -3.357196    3.926721
  H     -5.744700   -3.030292    1.768738
  H     -4.779554   -1.544060    0.034665

 Total Charge           Charge          ....    0
 Multiplicity           Mult            ....    1
 Number of Electrons    NEL             ....  312
 Basis Dimension        Dim             .... 2079

ORBITAL ENERGIES
----------------

  NO   OCC          E(Eh)            E(eV)
   0   2.0000    -100.907260     -2745.8262
   1   2.0000     -76.612301     -2084.7267
   2   2.0000     -76.612257     -2084.7255
   3   2.0000     -10.002878      -272.1921
   4   2.0000     -10.002670      -272.1865
   5   2.0000      -9.999724      -272.1063
   6   2.0000      -9.999521      -272.1008
   7   2.0000      -9.999086      -272.0890
   8   2.0000      -9.998841      -272.0823
   9   2.0000      -9.998681      -272.0779
  10   2.0000      -9.998395      -272.0702
  11   2.0000      -9.997851      -272.0554
  12   2.0000      -9.997775      -272.0533
  13   2.0000      -9.997455      -272.0446
  14   2.0000      -9.997428      -272.0439
  15   2.0000      -9.997355      -272.0419
  16   2.0000      -9.997343      -272.0415
  17   2.0000      -9.997253      -272.0391
  18   2.0000      -9.997241      -272.0388
  19   2.0000      -9.995258      -271.9848
  20   2.0000      -9.995131      -271.9813
  21   2.0000      -9.994342      -271.9599
  22   2.0000      -9.994173      -271.9553
  23   2.0000      -9.994160      -271.9549
  24   2.0000      -9.993863      -271.9469
  25   2.0000      -9.993594      -271.9395
  26   2.0000      -9.993319      -271.9320
  27   2.0000      -9.993208      -271.9290
  28   2.0000      -9.993167      -271.9279
  29   2.0000      -9.992654      -271.9139
  30   2.0000      -9.992528      -271.9105
  31   2.0000      -9.992167      -271.9007
  32   2.0000      -9.991862      -271.8924
  33   2.0000      -9.991400      -271.8798
  34   2.0000      -9.991103      -271.8717
  35   2.0000      -9.991091      -271.8714
  36   2.0000      -9.990819      -271.8640
  37   2.0000      -9.989458      -271.8270
  38   2.0000      -9.989112      -271.8176
  39   2.0000      -9.157009      -249.1749
  40   2.0000      -6.931933      -188.6275
  41   2.0000      -6.929363      -188.5575
  42   2.0000      -6.927403      -188.5042
  43   2.0000      -6.385817      -173.7669
  44   2.0000      -6.385765      -173.7655
  45   2.0000      -4.563370      -124.1756
  46   2.0000      -4.563318      -124.1742
  47   2.0000      -4.563198      -124.1709
  48   2.0000      -4.563152      -124.1697
  49   2.0000      -4.560689      -124.1027
  50   2.0000      -4.560633      -124.1011
  51   2.0000      -3.108581       -84.5888
  52   2.0000      -1.901768       -51.7497
  53   2.0000      -1.895189       -51.5707
  54   2.0000      -1.881955       -51.2106
  55   2.0000      -0.806326       -21.9413
  56   2.0000      -0.806175       -21.9371
  57   2.0000      -0.797621       -21.7044
  58   2.0000      -0.797553       -21.7025
  59   2.0000      -0.794940       -21.6314
  60   2.0000      -0.794886       -21.6300
  61   2.0000      -0.723554       -19.6889
  62   2.0000      -0.722721       -19.6662
  63   2.0000      -0.698374       -19.0037
  64   2.0000      -0.698256       -19.0005
  65   2.0000      -0.694920       -18.9097
  66   2.0000      -0.694610       -18.9013
  67   2.0000      -0.693202       -18.8630
  68   2.0000      -0.692913       -18.8551
  69   2.0000      -0.690508       -18.7897
  70   2.0000      -0.690398       -18.7867
  71   2.0000      -0.688769       -18.7424
  72   2.0000      -0.688709       -18.7407
  73   2.0000      -0.669523       -18.2187
  74   2.0000      -0.608722       -16.5642
  75   2.0000      -0.606362       -16.5000
  76   2.0000      -0.565100       -15.3772
  77   2.0000      -0.564778       -15.3684
  78   2.0000      -0.561548       -15.2805
  79   2.0000      -0.561133       -15.2692
  80   2.0000      -0.559706       -15.2304
  81   2.0000      -0.559420       -15.2226
  82   2.0000      -0.551142       -14.9973
  83   2.0000      -0.551103       -14.9963
  84   2.0000      -0.548994       -14.9389
  85   2.0000      -0.548931       -14.9372
  86   2.0000      -0.517978       -14.0949
  87   2.0000      -0.515659       -14.0318
  88   2.0000      -0.480534       -13.0760
  89   2.0000      -0.480172       -13.0661
  90   2.0000      -0.476871       -12.9763
  91   2.0000      -0.476639       -12.9700
  92   2.0000      -0.458763       -12.4836
  93   2.0000      -0.456251       -12.4152
  94   2.0000      -0.421418       -11.4674
  95   2.0000      -0.421033       -11.4569
  96   2.0000      -0.419465       -11.4142
  97   2.0000      -0.418817       -11.3966
  98   2.0000      -0.416202       -11.3254
  99   2.0000      -0.413774       -11.2594
 100   2.0000      -0.408474       -11.1152
 101   2.0000      -0.408190       -11.1074
 102   2.0000      -0.407675       -11.0934
 103   2.0000      -0.407397       -11.0858
 104   2.0000      -0.404070       -10.9953
 105   2.0000      -0.403112       -10.9692
 106   2.0000      -0.388883       -10.5820
 107   2.0000      -0.387246       -10.5375
 108   2.0000      -0.383237       -10.4284
 109   2.0000      -0.382777       -10.4159
 110   2.0000      -0.382474       -10.4076
 111   2.0000      -0.381718       -10.3871
 112   2.0000      -0.377043       -10.2599
 113   2.0000      -0.376545       -10.2463
 114   2.0000      -0.372604       -10.1391
 115   2.0000      -0.372418       -10.1340
 116   2.0000      -0.353466        -9.6183
 117   2.0000      -0.342970        -9.3327
 118   2.0000      -0.341341        -9.2884
 119   2.0000      -0.337785        -9.1916
 120   2.0000      -0.337092        -9.1727
 121   2.0000      -0.336060        -9.1447
 122   2.0000      -0.335868        -9.1394
 123   2.0000      -0.330227        -8.9859
 124   2.0000      -0.329921        -8.9776
 125   2.0000      -0.316305        -8.6071
 126   2.0000      -0.313713        -8.5366
 127   2.0000      -0.311327        -8.4716
 128   2.0000      -0.310433        -8.4473
 129   2.0000      -0.308653        -8.3989
 130   2.0000      -0.308355        -8.3908
 131   2.0000      -0.303359        -8.2548
 132   2.0000      -0.300905        -8.1880
 133   2.0000      -0.298439        -8.1209
 134   2.0000      -0.295861        -8.0508
 135   2.0000      -0.294356        -8.0098
 136   2.0000      -0.287165        -7.8141
 137   2.0000      -0.267555        -7.2806
 138   2.0000      -0.255228        -6.9451
 139   2.0000      -0.251973        -6.8565
 140   2.0000      -0.242072        -6.5871
 141   2.0000      -0.241983        -6.5847
 142   2.0000      -0.239535        -6.5181
 143   2.0000      -0.238784        -6.4977
 144   2.0000      -0.237903        -6.4737
 145   2.0000      -0.234717        -6.3870
 146   2.0000      -0.232729        -6.3329
 147   2.0000      -0.232287        -6.3208
 148   2.0000      -0.230589        -6.2746
 149   2.0000      -0.230194        -6.2639
 150   2.0000      -0.229073        -6.2334
 151   2.0000      -0.220045        -5.9877
 152   2.0000      -0.210408        -5.7255
 153   2.0000      -0.208294        -5.6680
 154   2.0000      -0.184498        -5.0204
 155   2.0000      -0.184435        -5.0187
 156   0.0000      -0.074532        -2.0281
 157   0.0000      -0.063313        -1.7228
 158   0.0000      -0.057468        -1.5638
 159   0.0000      -0.056176        -1.5286
 160   0.0000      -0.055261        -1.5037

MULLIKEN ATOMIC CHARGES
-----------------------
   0 Rh:   -1.686101
   1 P :    2.630442
   2 P :    2.677489
   3 H :    0.049708
   4 H :    0.070745
   5 Cl:   -0.855062
   6 C :   -0.512092
   7 C :   -0.187768
   8 C :   -0.270428
   9 C :   -0.219169
  10 C :   -0.292302
  11 C :   -0.421116
  12 C :    0.283974
  13 C :   -0.412616
  14 C :   -0.100470
  15 C :   -0.471208
  16 C :   -0.039266
  17 H :    0.304729
  18 H :    0.055754
  19 H :    0.085193
  20 H :    0.064079
  21 H :    0.194570
  22 C :   -0.021969
  23 C :   -0.436498
  24 C :   -0.100311
  25 C :   -0.440644
  26 C :    0.156054
  27 H :    0.083770
  28 H :    0.053137
  29 H :    0.085822
  30 H :    0.054212
  31 H :    0.245716
  32 C :   -0.241546
  33 C :   -0.476956
  34 C :   -0.116837
  35 C :   -0.394647
  36 C :    0.237825
  37 H :    0.351687
  38 H :    0.055002
  39 H :    0.080785
  40 H :    0.063394
  41 H :    0.296913
  42 C :    0.267818
  43 C :   -0.412332
  44 C :   -0.107814
  45 C :   -0.468447
  46 C :   -0.012967
  47 H :    0.316647
  48 H :    0.054991
  49 H :    0.084272
  50 H :    0.065791
  51 H :    0.131720
  52 C :    0.261666
  53 C :   -0.402687
  54 C :   -0.103434
  55 C :   -0.452175
  56 C :   -0.280327
  57 H :    0.301796
  58 H :    0.062946
  59 H :    0.083039
  60 H :    0.050764
  61 H :    0.378831
  62 C :   -0.046981
  63 C :   -0.426647
  64 C :   -0.109223
  65 C :   -0.443758
  66 C :    0.156033
  67 H :    0.131393
  68 H :    0.055308
  69 H :    0.086144
  70 H :    0.056240
  71 H :    0.237398
Sum of atomic charges:    0.0000000

LOEWDIN ATOMIC CHARGES
----------------------
   0 Rh:    0.262850
   1 P :    0.938245
   2 P :    0.937571
   3 H :   -0.111630
   4 H :   -0.114262
   5 Cl:   -0.036958
   6 C :   -0.314231
   7 C :   -0.305874
   8 C :   -0.339114
   9 C :   -0.305277
  10 C :   -0.336149
  11 C :   -0.315944
  12 C :    0.011391
  13 C :    0.023156
  14 C :    0.016907
  15 C :    0.021979
  16 C :   -0.019846
  17 H :   -0.004504
  18 H :   -0.000594
  19 H :   -0.002411
  20 H :   -0.000896
  21 H :   -0.030221
  22 C :   -0.024599
  23 C :    0.024995
  24 C :    0.019321
  25 C :    0.023272
  26 C :    0.006102
  27 H :   -0.012642
  28 H :   -0.000136
  29 H :   -0.002647
  30 H :   -0.001309
  31 H :    0.000278
  32 C :   -0.014559
  33 C :    0.024191
  34 C :    0.015689
  35 C :    0.019851
  36 C :    0.009718
  37 H :   -0.070984
  38 H :    0.000325
  39 H :   -0.003050
  40 H :   -0.001752
  41 H :   -0.006177
  42 C :    0.012916
  43 C :    0.023114
  44 C :    0.016629
  45 C :    0.021617
  46 C :   -0.021625
  47 H :   -0.005152
  48 H :   -0.000697
  49 H :   -0.002531
  50 H :   -0.000927
  51 H :   -0.026135
  52 C :    0.007639
  53 C :    0.019702
  54 C :    0.015771
  55 C :    0.024643
  56 C :   -0.012238
  57 H :   -0.005919
  58 H :   -0.001752
  59 H :   -0.003047
  60 H :    0.000354
  61 H :   -0.073057
  62 C :   -0.024347
  63 C :    0.025217
  64 C :    0.019319
  65 C :    0.023262
  66 C :    0.006555
  67 H :   -0.015785
  68 H :   -0.000138
  69 H :   -0.002608
  70 H :   -0.001294
  71 H :    0.000440

  Mayer bond orders larger than 0.100000
B(  0-Rh,  1-P ) :   0.1086 B(  0-Rh,  3-H ) :   0.9863 B(  0-Rh,  4-H ) :   0.9805
B(  0-Rh,  5-Cl) :   0.9454 B(  0-Rh,  6-C ) :   0.1640 B(  0-Rh,  7-C ) :   0.1073
B(  0-Rh,  8-C ) :   0.1783 B(  0-Rh,  9-C ) :   0.1184 B(  0-Rh, 10-C ) :   0.1836
B(  0-Rh, 11-C ) :   0.1493 B(  0-Rh, 16-C ) :   0.1553 B(  0-Rh, 22-C ) :   0.1268
B(  0-Rh, 32-C ) :   0.1405 B(  0-Rh, 46-C ) :   0.1391 B(  0-Rh, 56-C ) :   0.1072
B(  0-Rh, 62-C ) :   0.1431 B(  1-P ,  2-P ) :   0.3932 B(  1-P ,  3-H ) :  -0.1134
B(  1-P ,  5-Cl) :  -0.3922 B(  1-P ,  9-C ) :   0.1593 B(  1-P , 10-C ) :   0.4393
B(  1-P , 11-C ) :   0.2245 B(  2-P ,  4-H ) :  -0.1385 B(  2-P ,  5-Cl) :  -0.3988
B(  2-P ,  6-C ) :   0.3086 B(  2-P ,  7-C ) :   0.1475 B(  2-P ,  8-C ) :   0.3909
B(  3-H ,  5-Cl) :   0.1197 B(  4-H ,  5-Cl) :   0.1123 B(  5-Cl,  8-C ) :  -0.1065
B(  5-Cl, 22-C ) :   0.2054 B(  5-Cl, 37-H ) :  -0.1657 B(  5-Cl, 61-H ) :  -0.1895
B(  5-Cl, 62-C ) :   0.1908 B(  6-C ,  7-C ) :   0.6108 B(  6-C ,  8-C ) :   0.4856
B(  6-C , 12-C ) :   0.9678 B(  6-C , 13-C ) :  -0.1062 B(  6-C , 15-C ) :  -0.1319
B(  6-C , 16-C ) :   1.1099 B(  6-C , 32-C ) :  -0.1285 B(  7-C ,  8-C ) :   0.6298
B(  7-C , 32-C ) :   0.9918 B(  7-C , 33-C ) :  -0.1697 B(  7-C , 35-C ) :  -0.1868
B(  7-C , 36-C ) :   0.7741 B(  8-C , 16-C ) :  -0.1345 B(  8-C , 22-C ) :   1.2089
B(  8-C , 23-C ) :  -0.1459 B(  8-C , 25-C ) :  -0.1501 B(  8-C , 26-C ) :   1.0050
B(  9-C , 10-C ) :   0.6586 B(  9-C , 11-C ) :   0.6349 B(  9-C , 52-C ) :   0.7537
B(  9-C , 53-C ) :  -0.1907 B(  9-C , 55-C ) :  -0.1580 B(  9-C , 56-C ) :   0.9830
B( 10-C , 11-C ) :   0.4576 B( 10-C , 46-C ) :  -0.1317 B( 10-C , 62-C ) :   1.1976
B( 10-C , 63-C ) :  -0.1697 B( 10-C , 65-C ) :  -0.1500 B( 10-C , 66-C ) :   1.0286
B( 11-C , 42-C ) :   0.9236 B( 11-C , 43-C ) :  -0.1196 B( 11-C , 45-C ) :  -0.1487
B( 11-C , 46-C ) :   1.1252 B( 11-C , 56-C ) :  -0.1143 B( 12-C , 13-C ) :   1.1838
B( 12-C , 17-H ) :   0.8836 B( 13-C , 14-C ) :   1.2021 B( 13-C , 18-H ) :   1.1288
B( 14-C , 15-C ) :   1.1994 B( 14-C , 19-H ) :   1.0639 B( 15-C , 16-C ) :   1.2710
B( 15-C , 20-H ) :   1.1196 B( 16-C , 21-H ) :   0.9220 B( 22-C , 23-C ) :   1.1886
B( 22-C , 25-C ) :   0.1040 B( 22-C , 27-H ) :   0.9897 B( 23-C , 24-C ) :   1.2040
B( 23-C , 28-H ) :   1.1227 B( 24-C , 25-C ) :   1.2388 B( 24-C , 29-H ) :   1.0597
B( 25-C , 26-C ) :   1.2109 B( 25-C , 30-H ) :   1.1236 B( 26-C , 31-H ) :   0.9182
B( 32-C , 33-C ) :   1.2870 B( 32-C , 35-C ) :   0.1196 B( 32-C , 37-H ) :   0.9367
B( 33-C , 34-C ) :   1.1562 B( 33-C , 37-H ) :  -0.1050 B( 33-C , 38-H ) :   1.1453
B( 34-C , 35-C ) :   1.2142 B( 34-C , 39-H ) :   1.0710 B( 35-C , 36-C ) :   1.2650
B( 35-C , 40-H ) :   1.1148 B( 36-C , 41-H ) :   0.8883 B( 42-C , 43-C ) :   1.2072
B( 42-C , 47-H ) :   0.8815 B( 43-C , 44-C ) :   1.2148 B( 43-C , 48-H ) :   1.1305
B( 44-C , 45-C ) :   1.2115 B( 44-C , 49-H ) :   1.0635 B( 45-C , 46-C ) :   1.2510
B( 45-C , 50-H ) :   1.1194 B( 46-C , 51-H ) :   0.9382 B( 52-C , 53-C ) :   1.2559
B( 52-C , 57-H ) :   0.8823 B( 53-C , 54-C ) :   1.2129 B( 53-C , 56-C ) :   0.1252
B( 53-C , 58-H ) :   1.1171 B( 54-C , 55-C ) :   1.1442 B( 54-C , 59-H ) :   1.0685
B( 55-C , 56-C ) :   1.3101 B( 55-C , 60-H ) :   1.1467 B( 55-C , 61-H ) :  -0.1080
B( 56-C , 61-H ) :   0.9134 B( 62-C , 63-C ) :   1.1878 B( 62-C , 65-C ) :   0.1033
B( 62-C , 67-H ) :   0.9805 B( 63-C , 64-C ) :   1.2066 B( 63-C , 68-H ) :   1.1223
B( 64-C , 65-C ) :   1.2402 B( 64-C , 69-H ) :   1.0591 B( 65-C , 66-C ) :   1.2184
B( 65-C , 70-H ) :   1.1195 B( 66-C , 71-H ) :   0.9082

Dispersion correction           -0.167733050
FINAL SINGLE POINT ENERGY     -2645.716183934876

DIPOLE MOMENT
-------------
                                X             Y             Z
Electronic contribution:      0.23891      -6.70156      -2.79418
Nuclear contribution   :     -0.23889       7.84350       2.82850
                        -----------------------------------------
Total Dipole Moment    :      0.00003       1.14194       0.03432
                        -----------------------------------------
Magnitude (a.u.)       :      1.14246
Magnitude (Debye)      :      2.90390

Rotational constants in cm-1:     0.003375     0.001837     0.001796
Rotational constants in MHz :   101.191459    55.075356    53.852243

                             ****ORCA TERMINATED NORMALLY****
TOTAL RUN TIME: 0 days 0 hours 2 minutes 32 seconds 24 msec
