                         Program Version 4.2.0 -  RELEASE  -
|  1> #
|  2> # MOR29_pr11 TPSS-D3BJ/Def2-TZVPPD
|  3> #
|  4> ! tpss d3bj def2-tzvppd def2/j grid4 nofinalgrid
|  5>
|  6> *xyz 0 1
|  7> C       -1.039290   -2.639432    0.178033
|  8> C       -2.178017   -3.305635   -0.258724
|  9> C       -3.296391   -2.550827   -0.605540
| 10> C       -3.231094   -1.166811   -0.503382
| 11> H       -0.140242   -3.178187    0.457229
| 12> H       -2.180740   -4.388297   -0.324253
| 13> H       -4.206388   -3.031472   -0.950846
| 14> H       -4.092575   -0.563880   -0.765153
| 15> N       -0.970920   -1.306381    0.272680
| 16> C       -2.050199   -0.559703   -0.062217
| 17> C       -1.896627    0.903347    0.053727
| 18> N       -0.715899    1.344389    0.547476
| 19> C       -0.493208    2.660516    0.650101
| 20> C       -2.657172    3.172580   -0.229603
| 21> C       -1.435330    3.611046    0.276469
| 22> H        0.481431    2.944320    1.031789
| 23> H       -1.207232    4.666962    0.373432
| 24> C       -2.888209    1.807210   -0.342538
| 25> H       -3.826394    1.449184   -0.749672
| 26> H       -3.416704    3.882938   -0.540755
| 27> Pd       0.796966   -0.183618    0.920224
| 28> C        2.296006    1.038742    1.594093
| 29> H        1.829551    1.776866    2.255021
| 30> H        2.734263    1.506656    0.710942
| 31> H        3.050202    0.480142    2.149825
| 32> C        2.162541   -1.690695    1.159536
| 33> H        3.086547   -1.399047    0.660601
| 34> H        1.744149   -2.568037    0.656862
| 35> H        2.334771   -1.896294    2.218292
| 36> I        1.451603    0.093477   -1.772045
| 37> C        0.284011   -0.444486    2.913651
| 38> H       -0.123661   -1.453796    3.016265
| 39> H       -0.476481    0.304111    3.153737
| 40> H        1.159721   -0.321172    3.551993
| 41> *
| 42>
| 43> %maxcore 5000
| 44>
| 45> %pal
| 46> nprocs = 24
| 47> end
| 48>
| 49>
| 50>                          ****END OF INPUT****

CARTESIAN COORDINATES (ANGSTROEM)
---------------------------------
  C     -1.039290   -2.639432    0.178033
  C     -2.178017   -3.305635   -0.258724
  C     -3.296391   -2.550827   -0.605540
  C     -3.231094   -1.166811   -0.503382
  H     -0.140242   -3.178187    0.457229
  H     -2.180740   -4.388297   -0.324253
  H     -4.206388   -3.031472   -0.950846
  H     -4.092575   -0.563880   -0.765153
  N     -0.970920   -1.306381    0.272680
  C     -2.050199   -0.559703   -0.062217
  C     -1.896627    0.903347    0.053727
  N     -0.715899    1.344389    0.547476
  C     -0.493208    2.660516    0.650101
  C     -2.657172    3.172580   -0.229603
  C     -1.435330    3.611046    0.276469
  H      0.481431    2.944320    1.031789
  H     -1.207232    4.666962    0.373432
  C     -2.888209    1.807210   -0.342538
  H     -3.826394    1.449184   -0.749672
  H     -3.416704    3.882938   -0.540755
  Pd     0.796966   -0.183618    0.920224
  C      2.296006    1.038742    1.594093
  H      1.829551    1.776866    2.255021
  H      2.734263    1.506656    0.710942
  H      3.050202    0.480142    2.149825
  C      2.162541   -1.690695    1.159536
  H      3.086547   -1.399047    0.660601
  H      1.744149   -2.568037    0.656862
  H      2.334771   -1.896294    2.218292
  I      1.451603    0.093477   -1.772045
  C      0.284011   -0.444486    2.913651
  H     -0.123661   -1.453796    3.016265
  H     -0.476481    0.304111    3.153737
  H      1.159721   -0.321172    3.551993

 Total Charge           Charge          ....    0
 Multiplicity           Mult            ....    1
 Number of Electrons    NEL             ....  152
 Basis Dimension        Dim             ....  959

ORBITAL ENERGIES
----------------

  NO   OCC          E(Eh)            E(eV)
   0   2.0000     -14.155831      -385.1998
   1   2.0000     -14.155210      -385.1829
   2   2.0000     -10.068478      -273.9772
   3   2.0000     -10.067742      -273.9572
   4   2.0000     -10.054223      -273.5893
   5   2.0000     -10.053095      -273.5586
   6   2.0000     -10.037357      -273.1304
   7   2.0000     -10.036431      -273.1052
   8   2.0000     -10.033870      -273.0355
   9   2.0000     -10.033166      -273.0163
  10   2.0000     -10.029066      -272.9048
  11   2.0000     -10.028010      -272.8760
  12   2.0000      -9.971827      -271.3472
  13   2.0000      -9.968186      -271.2481
  14   2.0000      -9.966657      -271.2065
  15   2.0000      -6.560234      -178.5131
  16   2.0000      -4.613722      -125.5457
  17   2.0000      -4.608107      -125.3930
  18   2.0000      -4.608052      -125.3915
  19   2.0000      -3.370779       -91.7236
  20   2.0000      -2.080154       -56.6039
  21   2.0000      -2.076085       -56.4931
  22   2.0000      -2.075575       -56.4793
  23   2.0000      -1.728812       -47.0434
  24   2.0000      -1.727502       -47.0077
  25   2.0000      -1.727434       -47.0059
  26   2.0000      -1.722698       -46.8770
  27   2.0000      -1.722674       -46.8763
  28   2.0000      -0.934284       -25.4232
  29   2.0000      -0.910697       -24.7813
  30   2.0000      -0.785102       -21.3637
  31   2.0000      -0.777412       -21.1545
  32   2.0000      -0.772841       -21.0301
  33   2.0000      -0.721570       -19.6349
  34   2.0000      -0.641091       -17.4450
  35   2.0000      -0.632092       -17.2001
  36   2.0000      -0.627811       -17.0836
  37   2.0000      -0.605549       -16.4778
  38   2.0000      -0.604624       -16.4526
  39   2.0000      -0.596801       -16.2398
  40   2.0000      -0.589268       -16.0348
  41   2.0000      -0.553463       -15.0605
  42   2.0000      -0.531756       -14.4698
  43   2.0000      -0.494219       -13.4484
  44   2.0000      -0.489757       -13.3270
  45   2.0000      -0.473612       -12.8876
  46   2.0000      -0.455096       -12.3838
  47   2.0000      -0.437903       -11.9159
  48   2.0000      -0.425333       -11.5739
  49   2.0000      -0.423387       -11.5210
  50   2.0000      -0.412649       -11.2288
  51   2.0000      -0.405175       -11.0254
  52   2.0000      -0.392526       -10.6812
  53   2.0000      -0.377175       -10.2635
  54   2.0000      -0.371554       -10.1105
  55   2.0000      -0.370396       -10.0790
  56   2.0000      -0.365242        -9.9387
  57   2.0000      -0.357556        -9.7296
  58   2.0000      -0.336588        -9.1590
  59   2.0000      -0.333929        -9.0867
  60   2.0000      -0.330239        -8.9863
  61   2.0000      -0.328539        -8.9400
  62   2.0000      -0.318918        -8.6782
  63   2.0000      -0.308748        -8.4015
  64   2.0000      -0.298636        -8.1263
  65   2.0000      -0.296996        -8.0817
  66   2.0000      -0.294761        -8.0208
  67   2.0000      -0.251748        -6.8504
  68   2.0000      -0.245448        -6.6790
  69   2.0000      -0.241501        -6.5716
  70   2.0000      -0.237593        -6.4652
  71   2.0000      -0.234908        -6.3922
  72   2.0000      -0.231747        -6.3062
  73   2.0000      -0.188970        -5.1421
  74   2.0000      -0.168810        -4.5936
  75   2.0000      -0.168517        -4.5856
  76   0.0000      -0.117801        -3.2055
  77   0.0000      -0.091589        -2.4923
  78   0.0000      -0.081462        -2.2167
  79   0.0000      -0.051372        -1.3979
  80   0.0000      -0.043856        -1.1934

MULLIKEN ATOMIC CHARGES
-----------------------
   0 C :    0.146844
   1 C :   -0.331710
   2 C :   -0.041466
   3 C :   -0.312147
   4 H :    0.042037
   5 H :    0.057155
   6 H :    0.091720
   7 H :    0.048976
   8 N :    0.453382
   9 C :    0.624293
  10 C :    0.123010
  11 N :    0.584902
  12 C :    0.114889
  13 C :   -0.113934
  14 C :   -0.315233
  15 H :    0.017896
  16 H :    0.061814
  17 C :   -0.329219
  18 H :    0.047101
  19 H :    0.087251
  20 Pd:   -0.969491
  21 C :   -0.324659
  22 H :    0.166832
  23 H :    0.131652
  24 H :    0.180703
  25 C :   -0.188367
  26 H :    0.171792
  27 H :    0.033668
  28 H :    0.171794
  29 I :   -0.531945
  30 C :   -0.265270
  31 H :    0.106674
  32 H :    0.066117
  33 H :    0.192937
Sum of atomic charges:    0.0000000

LOEWDIN ATOMIC CHARGES
----------------------
   0 C :   -0.019333
   1 C :    0.065322
   2 C :    0.053581
   3 C :    0.088768
   4 H :   -0.003088
   5 H :    0.006087
   6 H :    0.008536
   7 H :   -0.000914
   8 N :    0.025510
   9 C :   -0.178369
  10 C :   -0.184809
  11 N :    0.015768
  12 C :   -0.021276
  13 C :    0.054129
  14 C :    0.065808
  15 H :    0.000641
  16 H :    0.006295
  17 C :    0.088888
  18 H :   -0.000819
  19 H :    0.008527
  20 Pd:    0.692458
  21 C :    0.026525
  22 H :   -0.095422
  23 H :   -0.120120
  24 H :   -0.088260
  25 C :    0.019896
  26 H :   -0.104567
  27 H :   -0.111224
  28 H :   -0.087838
  29 I :   -0.009958
  30 C :    0.080191
  31 H :   -0.093452
  32 H :   -0.093132
  33 H :   -0.094351

  Mayer bond orders larger than 0.100000
B(  0-C ,  1-C ) :   1.0655 B(  0-C ,  2-C ) :  -0.1009 B(  0-C ,  4-H ) :   1.0951
B(  0-C ,  8-N ) :   1.5008 B(  0-C , 20-Pd) :  -0.1074 B(  1-C ,  2-C ) :   1.1392
B(  1-C ,  4-H ) :  -0.1070 B(  1-C ,  5-H ) :   1.1048 B(  1-C ,  8-N ) :  -0.1531
B(  1-C , 20-Pd) :   0.1288 B(  2-C ,  3-C ) :   1.2044 B(  2-C ,  6-H ) :   1.0396
B(  2-C ,  8-N ) :   0.1349 B(  3-C ,  7-H ) :   1.2104 B(  3-C ,  8-N ) :  -0.2440
B(  3-C ,  9-C ) :   0.5955 B(  3-C , 10-C ) :  -0.5208 B(  3-C , 20-Pd) :   0.1482
B(  7-H , 10-C ) :  -0.1017 B(  8-N ,  9-C ) :   1.3925 B(  8-N , 10-C ) :   0.2303
B(  8-N , 20-Pd) :   0.3770 B(  9-C , 10-C ) :   1.2876 B(  9-C , 11-N ) :   0.2753
B(  9-C , 17-C ) :  -0.6192 B(  9-C , 20-Pd) :  -0.1461 B( 10-C , 11-N ) :   1.4218
B( 10-C , 17-C ) :   0.7351 B( 10-C , 20-Pd) :   0.1163 B( 10-C , 29-I ) :   0.1031
B( 11-N , 12-C ) :   1.4674 B( 11-N , 13-C ) :   0.1169 B( 11-N , 14-C ) :  -0.1924
B( 11-N , 17-C ) :  -0.2791 B( 11-N , 20-Pd) :   0.2582 B( 11-N , 29-I ) :   0.1017
B( 12-C , 14-C ) :   1.0880 B( 12-C , 15-H ) :   1.1154 B( 13-C , 14-C ) :   1.1936
B( 13-C , 17-C ) :   1.2098 B( 13-C , 19-H ) :   1.0462 B( 14-C , 16-H ) :   1.0887
B( 14-C , 20-Pd) :   0.1043 B( 17-C , 18-H ) :   1.1959 B( 17-C , 20-Pd) :   0.1718
B( 20-Pd, 21-C ) :   0.7449 B( 20-Pd, 23-H ) :   0.1434 B( 20-Pd, 25-C ) :   0.7202
B( 20-Pd, 27-H ) :   0.1498 B( 20-Pd, 29-I ) :   0.8146 B( 20-Pd, 30-C ) :   0.6302
B( 20-Pd, 31-H ) :   0.1333 B( 20-Pd, 32-H ) :   0.2009 B( 21-C , 22-H ) :   1.0085
B( 21-C , 23-H ) :   0.9767 B( 21-C , 24-H ) :   0.9888 B( 21-C , 29-I ) :  -0.1366
B( 23-H , 29-I ) :   0.1408 B( 25-C , 26-H ) :   0.9713 B( 25-C , 27-H ) :   1.0903
B( 25-C , 28-H ) :   0.9743 B( 25-C , 29-I ) :  -0.1105 B( 29-I , 30-C ) :   0.1563
B( 30-C , 31-H ) :   1.0054 B( 30-C , 32-H ) :   1.0301 B( 30-C , 33-H ) :   1.0012

Dispersion correction           -0.069480800
FINAL SINGLE POINT ENERGY     -1041.057629320074

DIPOLE MOMENT
-------------
                                X             Y             Z
Electronic contribution:    145.29630      -3.87131     -70.81695
Nuclear contribution   :   -148.61747       4.04670      71.83695
                        -----------------------------------------
Total Dipole Moment    :     -3.32118       0.17539       1.02000
                        -----------------------------------------
Magnitude (a.u.)       :      3.47871
Magnitude (Debye)      :      8.84217

Rotational constants in cm-1:     0.010327     0.008787     0.007812
Rotational constants in MHz :   309.600948   263.417504   234.204311

                             ****ORCA TERMINATED NORMALLY****
TOTAL RUN TIME: 0 days 0 hours 1 minutes 11 seconds 714 msec
