                         Program Version 4.2.0 -  RELEASE  -
|  1> #
|  2> # MOR20_i2 TPSS-D3BJ/Def2-TZVPPD
|  3> #
|  4> ! tpss d3bj def2-tzvppd def2/j grid4 nofinalgrid
|  5>
|  6> *xyz 0 1
|  7> I        0.000000    0.000000    1.341554
|  8> I        0.000000    0.000000   -1.341554
|  9> *
| 10>
| 11> %maxcore 5000
| 12>
| 13> %pal
| 14> nprocs = 24
| 15> end
| 16>
| 17>
| 18>                          ****END OF INPUT****

CARTESIAN COORDINATES (ANGSTROEM)
---------------------------------
  I      0.000000    0.000000    1.341554
  I      0.000000    0.000000   -1.341554

 Total Charge           Charge          ....    0
 Multiplicity           Mult            ....    1
 Number of Electrons    NEL             ....   50
 Basis Dimension        Dim             ....  118

ORBITAL ENERGIES
----------------

  NO   OCC          E(Eh)            E(eV)
   0   2.0000      -6.676829      -181.6858
   1   2.0000      -6.676823      -181.6856
   2   2.0000      -4.739028      -128.9555
   3   2.0000      -4.738877      -128.9514
   4   2.0000      -4.720290      -128.4456
   5   2.0000      -4.720290      -128.4456
   6   2.0000      -4.720280      -128.4454
   7   2.0000      -4.720280      -128.4453
   8   2.0000      -1.854073       -50.4519
   9   2.0000      -1.849920       -50.3389
  10   2.0000      -1.847841       -50.2823
  11   2.0000      -1.847841       -50.2823
  12   2.0000      -1.846669       -50.2504
  13   2.0000      -1.846668       -50.2504
  14   2.0000      -1.832251       -49.8581
  15   2.0000      -1.832222       -49.8573
  16   2.0000      -1.832145       -49.8552
  17   2.0000      -1.832116       -49.8544
  18   2.0000      -0.700572       -19.0635
  19   2.0000      -0.620784       -16.8924
  20   2.0000      -0.355867        -9.6836
  21   2.0000      -0.292736        -7.9658
  22   2.0000      -0.292736        -7.9658
  23   2.0000      -0.234329        -6.3764
  24   2.0000      -0.234329        -6.3764
  25   0.0000      -0.163080        -4.4376
  26   0.0000       0.002108         0.0574
  27   0.0000       0.010090         0.2746
  28   0.0000       0.020143         0.5481
  29   0.0000       0.020143         0.5481

MULLIKEN ATOMIC CHARGES
-----------------------
   0 I :    0.000000
   1 I :   -0.000000
Sum of atomic charges:   -0.0000000

LOEWDIN ATOMIC CHARGES
----------------------
   0 I :    0.000000
   1 I :   -0.000000

  Mayer bond orders larger than 0.100000
B(  0-I ,  1-I ) :   1.0127

Dispersion correction           -0.002458008
FINAL SINGLE POINT ENERGY      -595.217601585045

DIPOLE MOMENT
-------------
                                X             Y             Z
Electronic contribution:     -0.00000      -0.00000       0.00000
Nuclear contribution   :      0.00000       0.00000       0.00000
                        -----------------------------------------
Total Dipole Moment    :     -0.00000      -0.00000       0.00000
                        -----------------------------------------
Magnitude (a.u.)       :      0.00000
Magnitude (Debye)      :      0.00000

Rotational constants in cm-1:     0.000000     0.036905     0.036905
Rotational constants in MHz :     0.000000  1106.393636  1106.393636

                             ****ORCA TERMINATED NORMALLY****
TOTAL RUN TIME: 0 days 0 hours 0 minutes 4 seconds 399 msec
