                         Program Version 4.2.0 -  RELEASE  -
|  1> #
|  2> # MOR22_pcy3 TPSS-D3BJ/Def2-TZVPPD
|  3> #
|  4> ! tpss d3bj def2-tzvppd def2/j grid4 nofinalgrid
|  5>
|  6> *xyz 0 1
|  7> P       -0.216171   -0.083077   -1.104749
|  8> C        0.505342    1.551445   -0.512411
|  9> C        0.372168    1.952615    0.967298
| 10> C        0.853698    3.397029    1.180070
| 11> C        2.300662    3.578910    0.704200
| 12> C        2.457928    3.151362   -0.760734
| 13> C        1.965268    1.712769   -0.974950
| 14> C        0.795470   -1.465851   -0.339173
| 15> C        1.194026   -1.376002    1.141683
| 16> C        1.830829   -2.691519    1.617818
| 17> C        3.044522   -3.062049    0.755351
| 18> C        2.669205   -3.127202   -0.731177
| 19> C        2.022807   -1.816580   -1.203888
| 20> C       -1.786787   -0.169467   -0.086099
| 21> C       -2.713096    0.996882   -0.481425
| 22> C       -4.042154    0.954203    0.285800
| 23> C       -4.758728   -0.385405    0.080261
| 24> C       -3.846658   -1.555269    0.467941
| 25> C       -2.516136   -1.508613   -0.298163
| 26> H       -0.086881    2.275758   -1.095374
| 27> H        0.969845    1.279400    1.591405
| 28> H       -0.665694    1.858440    1.303963
| 29> H        0.763179    3.670246    2.238833
| 30> H        0.199154    4.078898    0.617939
| 31> H        2.616561    4.621342    0.833145
| 32> H        2.964320    2.965719    1.331124
| 33> H        1.874427    3.827995   -1.401227
| 34> H        3.505668    3.240568   -1.073514
| 35> H        2.061196    1.427054   -2.029468
| 36> H        2.603163    1.029346   -0.398698
| 37> H        0.103060   -2.317100   -0.439871
| 38> H        1.082328   -3.494681    1.556078
| 39> H        0.325749   -1.129652    1.763601
| 40> H        1.922184   -0.564787    1.270256
| 41> H        2.123181   -2.608981    2.672179
| 42> H        3.467034   -4.019422    1.084011
| 43> H        3.828662   -2.303820    0.895790
| 44> H        3.555664   -3.350052   -1.337889
| 45> H        1.959466   -3.952268   -0.888607
| 46> H        1.724465   -1.892063   -2.255831
| 47> H        2.762591   -1.008464   -1.141586
| 48> H       -1.543753   -0.076214    0.982532
| 49> H       -2.216101    1.957671   -0.306445
| 50> H       -2.910289    0.936504   -1.561343
| 51> H       -3.843829    1.098520    1.357699
| 52> H       -4.683867    1.784681   -0.033466
| 53> H       -5.041866   -0.483893   -0.977569
| 54> H       -5.687452   -0.415984    0.663015
| 55> H       -4.350272   -2.511559    0.279900
| 56> H       -3.640750   -1.510603    1.547174
| 57> H       -1.884435   -2.344750    0.021762
| 58> H       -2.704341   -1.645246   -1.372687
| 59> *
| 60>
| 61> %maxcore 5000
| 62>
| 63> %pal
| 64> nprocs = 24
| 65> end
| 66>
| 67>
| 68>                          ****END OF INPUT****

CARTESIAN COORDINATES (ANGSTROEM)
---------------------------------
  P     -0.216171   -0.083077   -1.104749
  C      0.505342    1.551445   -0.512411
  C      0.372168    1.952615    0.967298
  C      0.853698    3.397029    1.180070
  C      2.300662    3.578910    0.704200
  C      2.457928    3.151362   -0.760734
  C      1.965268    1.712769   -0.974950
  C      0.795470   -1.465851   -0.339173
  C      1.194026   -1.376002    1.141683
  C      1.830829   -2.691519    1.617818
  C      3.044522   -3.062049    0.755351
  C      2.669205   -3.127202   -0.731177
  C      2.022807   -1.816580   -1.203888
  C     -1.786787   -0.169467   -0.086099
  C     -2.713096    0.996882   -0.481425
  C     -4.042154    0.954203    0.285800
  C     -4.758728   -0.385405    0.080261
  C     -3.846658   -1.555269    0.467941
  C     -2.516136   -1.508613   -0.298163
  H     -0.086881    2.275758   -1.095374
  H      0.969845    1.279400    1.591405
  H     -0.665694    1.858440    1.303963
  H      0.763179    3.670246    2.238833
  H      0.199154    4.078898    0.617939
  H      2.616561    4.621342    0.833145
  H      2.964320    2.965719    1.331124
  H      1.874427    3.827995   -1.401227
  H      3.505668    3.240568   -1.073514
  H      2.061196    1.427054   -2.029468
  H      2.603163    1.029346   -0.398698
  H      0.103060   -2.317100   -0.439871
  H      1.082328   -3.494681    1.556078
  H      0.325749   -1.129652    1.763601
  H      1.922184   -0.564787    1.270256
  H      2.123181   -2.608981    2.672179
  H      3.467034   -4.019422    1.084011
  H      3.828662   -2.303820    0.895790
  H      3.555664   -3.350052   -1.337889
  H      1.959466   -3.952268   -0.888607
  H      1.724465   -1.892063   -2.255831
  H      2.762591   -1.008464   -1.141586
  H     -1.543753   -0.076214    0.982532
  H     -2.216101    1.957671   -0.306445
  H     -2.910289    0.936504   -1.561343
  H     -3.843829    1.098520    1.357699
  H     -4.683867    1.784681   -0.033466
  H     -5.041866   -0.483893   -0.977569
  H     -5.687452   -0.415984    0.663015
  H     -4.350272   -2.511559    0.279900
  H     -3.640750   -1.510603    1.547174
  H     -1.884435   -2.344750    0.021762
  H     -2.704341   -1.645246   -1.372687

 Total Charge           Charge          ....    0
 Multiplicity           Mult            ....    1
 Number of Electrons    NEL             ....  156
 Basis Dimension        Dim             .... 1275

ORBITAL ENERGIES
----------------

  NO   OCC          E(Eh)            E(eV)
   0   2.0000     -76.557868     -2083.2455
   1   2.0000      -9.986671      -271.7511
   2   2.0000      -9.985519      -271.7198
   3   2.0000      -9.985307      -271.7140
   4   2.0000      -9.981335      -271.6059
   5   2.0000      -9.981245      -271.6035
   6   2.0000      -9.980626      -271.5866
   7   2.0000      -9.980495      -271.5831
   8   2.0000      -9.979748      -271.5628
   9   2.0000      -9.979670      -271.5606
  10   2.0000      -9.979447      -271.5546
  11   2.0000      -9.979239      -271.5489
  12   2.0000      -9.979186      -271.5475
  13   2.0000      -9.979128      -271.5459
  14   2.0000      -9.979019      -271.5429
  15   2.0000      -9.978638      -271.5325
  16   2.0000      -9.978031      -271.5160
  17   2.0000      -9.977865      -271.5115
  18   2.0000      -9.977559      -271.5032
  19   2.0000      -6.333673      -172.3480
  20   2.0000      -4.511009      -122.7508
  21   2.0000      -4.510952      -122.7492
  22   2.0000      -4.508054      -122.6704
  23   2.0000      -0.776666       -21.1342
  24   2.0000      -0.767639       -20.8885
  25   2.0000      -0.767331       -20.8801
  26   2.0000      -0.702464       -19.1150
  27   2.0000      -0.685840       -18.6626
  28   2.0000      -0.684351       -18.6222
  29   2.0000      -0.682074       -18.5602
  30   2.0000      -0.677709       -18.4414
  31   2.0000      -0.676898       -18.4193
  32   2.0000      -0.586811       -15.9680
  33   2.0000      -0.563410       -15.3312
  34   2.0000      -0.560782       -15.2597
  35   2.0000      -0.554095       -15.0777
  36   2.0000      -0.548010       -14.9121
  37   2.0000      -0.547414       -14.8959
  38   2.0000      -0.515957       -14.0399
  39   2.0000      -0.506914       -13.7938
  40   2.0000      -0.503062       -13.6890
  41   2.0000      -0.478574       -13.0227
  42   2.0000      -0.434846       -11.8328
  43   2.0000      -0.431199       -11.7335
  44   2.0000      -0.424642       -11.5551
  45   2.0000      -0.404427       -11.0050
  46   2.0000      -0.399002       -10.8574
  47   2.0000      -0.398355       -10.8398
  48   2.0000      -0.397908       -10.8276
  49   2.0000      -0.395716       -10.7680
  50   2.0000      -0.393016       -10.6945
  51   2.0000      -0.389643       -10.6027
  52   2.0000      -0.376627       -10.2485
  53   2.0000      -0.369814       -10.0631
  54   2.0000      -0.345638        -9.4053
  55   2.0000      -0.341673        -9.2974
  56   2.0000      -0.339589        -9.2407
  57   2.0000      -0.338115        -9.2006
  58   2.0000      -0.337455        -9.1826
  59   2.0000      -0.332409        -9.0453
  60   2.0000      -0.321786        -8.7562
  61   2.0000      -0.316497        -8.6123
  62   2.0000      -0.313341        -8.5264
  63   2.0000      -0.307660        -8.3718
  64   2.0000      -0.306806        -8.3486
  65   2.0000      -0.304745        -8.2925
  66   2.0000      -0.299463        -8.1488
  67   2.0000      -0.298904        -8.1336
  68   2.0000      -0.291083        -7.9208
  69   2.0000      -0.285936        -7.7807
  70   2.0000      -0.277894        -7.5619
  71   2.0000      -0.274703        -7.4751
  72   2.0000      -0.267230        -7.2717
  73   2.0000      -0.265615        -7.2278
  74   2.0000      -0.262978        -7.1560
  75   2.0000      -0.235626        -6.4117
  76   2.0000      -0.235171        -6.3993
  77   2.0000      -0.183087        -4.9821
  78   0.0000      -0.009780        -0.2661
  79   0.0000      -0.003779        -0.1028
  80   0.0000      -0.000508        -0.0138
  81   0.0000       0.005500         0.1497
  82   0.0000       0.011686         0.3180

MULLIKEN ATOMIC CHARGES
-----------------------
   0 P :   -1.367775
   1 C :    0.506771
   2 C :    0.136069
   3 C :   -0.282181
   4 C :    0.141235
   5 C :   -0.187627
   6 C :   -0.268387
   7 C :    0.486461
   8 C :   -0.099794
   9 C :   -0.117455
  10 C :    0.079651
  11 C :   -0.178725
  12 C :   -0.107385
  13 C :    0.226095
  14 C :   -0.069328
  15 C :   -0.032868
  16 C :   -0.063021
  17 C :   -0.013710
  18 C :   -0.142839
  19 H :    0.153919
  20 H :    0.105064
  21 H :   -0.100839
  22 H :   -0.076549
  23 H :    0.083480
  24 H :   -0.073199
  25 H :    0.089998
  26 H :    0.077525
  27 H :   -0.070269
  28 H :    0.033022
  29 H :    0.170532
  30 H :    0.228783
  31 H :    0.063568
  32 H :   -0.048519
  33 H :    0.184805
  34 H :   -0.087848
  35 H :   -0.064938
  36 H :    0.081173
  37 H :   -0.069617
  38 H :    0.060579
  39 H :   -0.002338
  40 H :    0.099650
  41 H :    0.299115
  42 H :   -0.049972
  43 H :    0.174718
  44 H :    0.069513
  45 H :   -0.072579
  46 H :    0.088926
  47 H :   -0.066041
  48 H :   -0.053652
  49 H :    0.061715
  50 H :   -0.099865
  51 H :    0.164955
Sum of atomic charges:   -0.0000000

LOEWDIN ATOMIC CHARGES
----------------------
   0 P :    1.138339
   1 C :   -0.327804
   2 C :   -0.025102
   3 C :   -0.006205
   4 C :   -0.014257
   5 C :   -0.009879
   6 C :   -0.048105
   7 C :   -0.328712
   8 C :   -0.027603
   9 C :   -0.007436
  10 C :   -0.014974
  11 C :   -0.011989
  12 C :   -0.046665
  13 C :   -0.348597
  14 C :   -0.048137
  15 C :   -0.009973
  16 C :   -0.017250
  17 C :   -0.011317
  18 C :   -0.042785
  19 H :   -0.013120
  20 H :   -0.000022
  21 H :   -0.006272
  22 H :    0.009215
  23 H :    0.017559
  24 H :    0.007475
  25 H :    0.016840
  26 H :    0.016931
  27 H :    0.008812
  28 H :    0.008361
  29 H :   -0.000550
  30 H :   -0.023630
  31 H :    0.016966
  32 H :    0.004894
  33 H :    0.001280
  34 H :    0.008760
  35 H :    0.007234
  36 H :    0.016655
  37 H :    0.008231
  38 H :    0.016294
  39 H :    0.002794
  40 H :   -0.001640
  41 H :   -0.012579
  42 H :   -0.007713
  43 H :    0.017756
  44 H :    0.017347
  45 H :    0.008889
  46 H :    0.016775
  47 H :    0.007490
  48 H :    0.008480
  49 H :    0.017263
  50 H :   -0.006390
  51 H :    0.018066

  Mayer bond orders larger than 0.100000
B(  0-P ,  1-C ) :   0.5156 B(  0-P ,  6-C ) :   0.3580 B(  0-P ,  7-C ) :   0.4312
B(  0-P ,  8-C ) :   0.1984 B(  0-P , 12-C ) :   0.1617 B(  0-P , 13-C ) :   0.5007
B(  0-P , 14-C ) :   0.2711 B(  0-P , 19-H ) :  -0.1955 B(  0-P , 30-H ) :  -0.1133
B(  0-P , 39-H ) :  -0.1462 B(  1-C ,  2-C ) :   0.8971 B(  1-C ,  3-C ) :   0.2779
B(  1-C ,  5-C ) :   0.3294 B(  1-C ,  6-C ) :   1.0323 B(  1-C ,  7-C ) :   0.1714
B(  1-C , 19-H ) :   0.7966 B(  2-C ,  3-C ) :   0.9937 B(  2-C ,  4-C ) :   0.1411
B(  2-C ,  6-C ) :   0.1278 B(  2-C , 20-H ) :   0.8470 B(  2-C , 21-H ) :   0.8865
B(  3-C ,  4-C ) :   0.9238 B(  3-C ,  5-C ) :   0.2124 B(  3-C , 21-H ) :   0.1572
B(  3-C , 22-H ) :   0.9013 B(  3-C , 23-H ) :   0.9189 B(  4-C ,  5-C ) :   0.9478
B(  4-C ,  6-C ) :   0.1228 B(  4-C , 24-H ) :   0.9690 B(  4-C , 25-H ) :   0.9041
B(  5-C ,  6-C ) :   0.9421 B(  5-C , 26-H ) :   0.9403 B(  5-C , 27-H ) :   0.9432
B(  6-C , 12-C ) :   0.1094 B(  6-C , 28-H ) :   0.8520 B(  6-C , 29-H ) :   0.8861
B(  7-C ,  8-C ) :   1.0488 B(  7-C ,  9-C ) :   0.2758 B(  7-C , 11-C ) :   0.2760
B(  7-C , 12-C ) :   1.0530 B(  7-C , 13-C ) :   0.1888 B(  7-C , 18-C ) :   0.1091
B(  7-C , 30-H ) :   0.7511 B(  7-C , 39-H ) :   0.1393 B(  8-C ,  9-C ) :   0.9599
B(  8-C , 10-C ) :   0.1435 B(  8-C , 32-H ) :   0.9146 B(  8-C , 33-H ) :   0.8606
B(  9-C , 10-C ) :   0.9399 B(  9-C , 11-C ) :   0.1789 B(  9-C , 31-H ) :   0.9231
B(  9-C , 34-H ) :   0.9204 B( 10-C , 11-C ) :   0.9525 B( 10-C , 12-C ) :   0.1127
B( 10-C , 35-H ) :   0.9722 B( 10-C , 36-H ) :   0.9235 B( 11-C , 12-C ) :   0.8465
B( 11-C , 37-H ) :   0.9475 B( 11-C , 38-H ) :   0.9662 B( 12-C , 39-H ) :   0.9023
B( 12-C , 40-H ) :   0.9113 B( 13-C , 14-C ) :   1.0374 B( 13-C , 15-C ) :   0.2663
B( 13-C , 17-C ) :   0.2329 B( 13-C , 18-C ) :   1.0784 B( 13-C , 41-H ) :   0.7526
B( 14-C , 15-C ) :   0.8187 B( 14-C , 16-C ) :   0.2177 B( 14-C , 41-H ) :  -0.1109
B( 14-C , 42-H ) :   0.9513 B( 14-C , 43-H ) :   0.7747 B( 15-C , 16-C ) :   0.9331
B( 15-C , 17-C ) :   0.1355 B( 15-C , 42-H ) :   0.1686 B( 15-C , 44-H ) :   0.9217
B( 15-C , 45-H ) :   0.9697 B( 16-C , 17-C ) :   0.9317 B( 16-C , 18-C ) :   0.2392
B( 16-C , 46-H ) :   0.9410 B( 16-C , 47-H ) :   0.9639 B( 17-C , 18-C ) :   0.7793
B( 17-C , 48-H ) :   0.9715 B( 17-C , 49-H ) :   0.9187 B( 17-C , 50-H ) :   0.1755
B( 18-C , 50-H ) :   0.9508 B( 18-C , 51-H ) :   0.8039

Dispersion correction           -0.085271547
FINAL SINGLE POINT ENERGY     -1047.661771410836

DIPOLE MOMENT
-------------
                                X             Y             Z
Electronic contribution:     -1.36724      -0.47755      -6.53079
Nuclear contribution   :      1.41899       0.52417       7.05083
                        -----------------------------------------
Total Dipole Moment    :      0.05175       0.04661       0.52004
                        -----------------------------------------
Magnitude (a.u.)       :      0.52468
Magnitude (Debye)      :      1.33363

Rotational constants in cm-1:     0.011612     0.009073     0.005947
Rotational constants in MHz :   348.132374   272.016111   178.294122

                             ****ORCA TERMINATED NORMALLY****
TOTAL RUN TIME: 0 days 0 hours 0 minutes 56 seconds 130 msec
