                         Program Version 4.2.0 -  RELEASE  -
|  1> #
|  2> # MOR26_pr05 TPSS-D3BJ/Def2-TZVPPD
|  3> #
|  4> ! tpss d3bj def2-tzvppd def2/j grid4 nofinalgrid
|  5>
|  6> *xyz 0 1
|  7> Mn       0.144445   -0.000220    0.050119
|  8> O       -2.125838   -0.018069    2.024989
|  9> C       -1.261969   -0.011297    1.274333
| 10> C        1.407998   -0.004194    1.401883
| 11> O        2.195378   -0.006691    2.240943
| 12> C        1.458789    0.011243   -1.252981
| 13> O        2.260044    0.018413   -2.075843
| 14> C       -0.034165    1.837211   -0.109707
| 15> O       -0.163636    2.972926   -0.231026
| 16> C       -0.023402   -1.836685   -0.130415
| 17> O       -0.146189   -2.971707   -0.264701
| 18> C       -1.328355    0.004078   -1.485929
| 19> O       -2.518815    0.004844   -1.307728
| 20> H       -0.932058    0.005632   -2.529143
| 21> *
| 22>
| 23> %maxcore 5000
| 24>
| 25> %pal
| 26> nprocs = 24
| 27> end
| 28>
| 29>
| 30>                          ****END OF INPUT****

CARTESIAN COORDINATES (ANGSTROEM)
---------------------------------
  Mn     0.144445   -0.000220    0.050119
  O     -2.125838   -0.018069    2.024989
  C     -1.261969   -0.011297    1.274333
  C      1.407998   -0.004194    1.401883
  O      2.195378   -0.006691    2.240943
  C      1.458789    0.011243   -1.252981
  O      2.260044    0.018413   -2.075843
  C     -0.034165    1.837211   -0.109707
  O     -0.163636    2.972926   -0.231026
  C     -0.023402   -1.836685   -0.130415
  O     -0.146189   -2.971707   -0.264701
  C     -1.328355    0.004078   -1.485929
  O     -2.518815    0.004844   -1.307728
  H     -0.932058    0.005632   -2.529143

 Total Charge           Charge          ....    0
 Multiplicity           Mult            ....    1
 Number of Electrons    NEL             ....  110
 Basis Dimension        Dim             ....  546

ORBITAL ENERGIES
----------------

  NO   OCC          E(Eh)            E(eV)
   0   2.0000    -234.713263     -6386.8726
   1   2.0000     -27.006754      -734.8911
   2   2.0000     -23.101746      -628.6305
   3   2.0000     -23.100499      -628.5965
   4   2.0000     -23.095910      -628.4717
   5   2.0000     -18.991393      -516.7821
   6   2.0000     -18.989305      -516.7253
   7   2.0000     -18.984382      -516.5913
   8   2.0000     -18.984368      -516.5909
   9   2.0000     -18.978960      -516.4438
  10   2.0000     -18.907958      -514.5117
  11   2.0000     -10.126561      -275.5577
  12   2.0000     -10.125419      -275.5267
  13   2.0000     -10.122803      -275.4555
  14   2.0000     -10.122791      -275.4551
  15   2.0000     -10.117520      -275.3117
  16   2.0000     -10.087732      -274.5011
  17   2.0000      -3.076416       -83.7135
  18   2.0000      -1.966250       -53.5044
  19   2.0000      -1.964407       -53.4542
  20   2.0000      -1.952476       -53.1296
  21   2.0000      -1.092256       -29.7218
  22   2.0000      -1.091089       -29.6900
  23   2.0000      -1.085291       -29.5323
  24   2.0000      -1.085259       -29.5314
  25   2.0000      -1.079615       -29.3778
  26   2.0000      -0.999349       -27.1937
  27   2.0000      -0.593866       -16.1599
  28   2.0000      -0.554995       -15.1022
  29   2.0000      -0.540717       -14.7137
  30   2.0000      -0.538124       -14.6431
  31   2.0000      -0.533989       -14.5306
  32   2.0000      -0.532744       -14.4967
  33   2.0000      -0.471339       -12.8258
  34   2.0000      -0.457182       -12.4406
  35   2.0000      -0.450444       -12.2572
  36   2.0000      -0.449479       -12.2309
  37   2.0000      -0.449328       -12.2268
  38   2.0000      -0.446837       -12.1591
  39   2.0000      -0.444816       -12.1041
  40   2.0000      -0.434650       -11.8274
  41   2.0000      -0.431579       -11.7439
  42   2.0000      -0.427690       -11.6380
  43   2.0000      -0.426869       -11.6157
  44   2.0000      -0.426620       -11.6089
  45   2.0000      -0.420627       -11.4459
  46   2.0000      -0.414832       -11.2882
  47   2.0000      -0.401904       -10.9364
  48   2.0000      -0.391643       -10.6572
  49   2.0000      -0.366131        -9.9629
  50   2.0000      -0.363242        -9.8843
  51   2.0000      -0.267779        -7.2866
  52   2.0000      -0.252471        -6.8701
  53   2.0000      -0.251387        -6.8406
  54   2.0000      -0.209004        -5.6873
  55   0.0000      -0.092819        -2.5257
  56   0.0000      -0.089882        -2.4458
  57   0.0000      -0.085249        -2.3198
  58   0.0000      -0.084384        -2.2962
  59   0.0000      -0.074875        -2.0375

MULLIKEN ATOMIC CHARGES
-----------------------
   0 Mn:   -0.442282
   1 O :   -0.259448
   2 C :    0.469360
   3 C :    0.514271
   4 O :   -0.328406
   5 C :    0.420151
   6 O :   -0.295438
   7 C :    0.270440
   8 O :   -0.294757
   9 C :    0.270554
  10 O :   -0.294941
  11 C :    0.376887
  12 O :   -0.485388
  13 H :    0.078998
Sum of atomic charges:    0.0000000

LOEWDIN ATOMIC CHARGES
----------------------
   0 Mn:   -0.363888
   1 O :    0.203276
   2 C :   -0.079421
   3 C :   -0.089737
   4 O :    0.164663
   5 C :   -0.101742
   6 O :    0.185567
   7 C :   -0.093463
   8 O :    0.181225
   9 C :   -0.093583
  10 O :    0.181135
  11 C :   -0.128798
  12 O :    0.045718
  13 H :   -0.010953

  Mayer bond orders larger than 0.100000
B(  0-Mn,  1-O ) :   0.1410 B(  0-Mn,  2-C ) :   1.0644 B(  0-Mn,  3-C ) :   1.1957
B(  0-Mn,  4-O ) :   0.1087 B(  0-Mn,  5-C ) :   1.0788 B(  0-Mn,  6-O ) :   0.1053
B(  0-Mn,  7-C ) :   1.1535 B(  0-Mn,  9-C ) :   1.1538 B(  0-Mn, 11-C ) :   0.7375
B(  0-Mn, 12-O ) :   0.3115 B(  1-O ,  2-C ) :   1.9935 B(  3-C ,  4-O ) :   1.9695
B(  5-C ,  6-O ) :   1.9672 B(  7-C ,  8-O ) :   1.9945 B(  9-C , 10-O ) :   1.9946
B( 11-C , 12-O ) :   1.6016 B( 11-C , 13-H ) :   1.0286

Dispersion correction           -0.024019977
FINAL SINGLE POINT ENERGY     -1832.169932995999

DIPOLE MOMENT
-------------
                                X             Y             Z
Electronic contribution:      2.20551      -0.00679       2.52894
Nuclear contribution   :     -1.52284       0.00619      -2.55446
                        -----------------------------------------
Total Dipole Moment    :      0.68267      -0.00060      -0.02552
                        -----------------------------------------
Magnitude (a.u.)       :      0.68315
Magnitude (Debye)      :      1.73643

Rotational constants in cm-1:     0.023969     0.022043     0.021367
Rotational constants in MHz :   718.564967   660.846663   640.564054

                             ****ORCA TERMINATED NORMALLY****
TOTAL RUN TIME: 0 days 0 hours 0 minutes 16 seconds 133 msec
