                         Program Version 4.2.0 -  RELEASE  -
|  1> #
|  2> # MOR21_mecn TPSS-D3BJ/Def2-TZVPPD
|  3> #
|  4> ! tpss d3bj def2-tzvppd def2/j grid4 nofinalgrid
|  5>
|  6> *xyz 0 1
|  7> N        1.434594    0.083513   -0.053227
|  8> C        0.278345    0.016206   -0.010325
|  9> C       -1.176577   -0.068494    0.043652
| 10> H       -1.556498   -0.572512   -0.849824
| 11> H       -1.609231    0.934929    0.094890
| 12> H       -1.487035   -0.633283    0.927565
| 13> *
| 14>
| 15> %maxcore 5000
| 16>
| 17> %pal
| 18> nprocs = 24
| 19> end
| 20>
| 21>
| 22>                          ****END OF INPUT****

CARTESIAN COORDINATES (ANGSTROEM)
---------------------------------
  N      1.434594    0.083513   -0.053227
  C      0.278345    0.016206   -0.010325
  C     -1.176577   -0.068494    0.043652
  H     -1.556498   -0.572512   -0.849824
  H     -1.609231    0.934929    0.094890
  H     -1.487035   -0.633283    0.927565

 Total Charge           Charge          ....    0
 Multiplicity           Mult            ....    1
 Number of Electrons    NEL             ....   22
 Basis Dimension        Dim             ....  162

ORBITAL ENERGIES
----------------

  NO   OCC          E(Eh)            E(eV)
   0   2.0000     -14.098990      -383.6530
   1   2.0000     -10.044025      -273.3118
   2   2.0000     -10.025323      -272.8029
   3   2.0000      -0.842802       -22.9338
   4   2.0000      -0.726544       -19.7703
   5   2.0000      -0.477767       -13.0007
   6   2.0000      -0.429310       -11.6821
   7   2.0000      -0.429306       -11.6820
   8   2.0000      -0.320111        -8.7107
   9   2.0000      -0.298741        -8.1292
  10   2.0000      -0.298741        -8.1292
  11   0.0000      -0.016036        -0.4364
  12   0.0000      -0.005827        -0.1586
  13   0.0000      -0.005826        -0.1585
  14   0.0000       0.040259         1.0955
  15   0.0000       0.065344         1.7781

MULLIKEN ATOMIC CHARGES
-----------------------
   0 N :   -0.191970
   1 C :   -0.054513
   2 C :    0.073416
   3 H :    0.057508
   4 H :    0.057855
   5 H :    0.057703
Sum of atomic charges:    0.0000000

LOEWDIN ATOMIC CHARGES
----------------------
   0 N :    0.128109
   1 C :   -0.243439
   2 C :    0.136861
   3 H :   -0.007179
   4 H :   -0.007174
   5 H :   -0.007178

  Mayer bond orders larger than 0.100000
B(  0-N ,  1-C ) :   2.2875 B(  0-N ,  2-C ) :   0.1097 B(  1-C ,  2-C ) :   1.0432
B(  2-C ,  3-H ) :   0.9562 B(  2-C ,  4-H ) :   0.9554 B(  2-C ,  5-H ) :   0.9564

Dispersion correction           -0.003446251
FINAL SINGLE POINT ENERGY      -132.832868693454

DIPOLE MOMENT
-------------
                                X             Y             Z
Electronic contribution:      3.11589       0.18140      -0.11562
Nuclear contribution   :     -4.67428      -0.27212       0.17343
                        -----------------------------------------
Total Dipole Moment    :     -1.55839      -0.09071       0.05781
                        -----------------------------------------
Magnitude (a.u.)       :      1.56209
Magnitude (Debye)      :      3.97053

Rotational constants in cm-1:     5.279638     0.306561     0.306561
Rotational constants in MHz : 158279.554854  9190.460473  9190.452676

                             ****ORCA TERMINATED NORMALLY****
TOTAL RUN TIME: 0 days 0 hours 0 minutes 3 seconds 276 msec
