                         Program Version 4.2.0 -  RELEASE  -
|  1> #
|  2> # MOR33_pr28 TPSS-D3BJ/Def2-TZVPPD
|  3> #
|  4> ! tpss d3bj def2-tzvppd def2/j grid4 nofinalgrid
|  5>
|  6> *xyz 0 1
|  7> C        1.962238    1.228976    0.498763
|  8> C        1.599117    0.285883    1.541183
|  9> C        2.190996   -0.926462   -0.368778
| 10> C        2.300550    0.493131   -0.671789
| 11> C        2.081248    2.713946    0.664976
| 12> H        1.434728    3.080045    1.466376
| 13> H        1.821015    3.245065   -0.254703
| 14> H        3.112287    2.986784    0.927647
| 15> C        2.741378    1.051608   -1.988266
| 16> H        2.535990    2.123448   -2.051886
| 17> H        2.213045    0.558789   -2.809947
| 18> H        3.820515    0.902993   -2.128525
| 19> C        2.527241   -2.035347   -1.317221
| 20> H        3.613873   -2.134320   -1.446849
| 21> H        2.080344   -1.846887   -2.298459
| 22> H        2.144835   -2.993343   -0.953257
| 23> C        1.716574   -2.315630    1.788054
| 24> H        2.711935   -2.577282    2.171299
| 25> H        1.368788   -3.152284    1.175589
| 26> H        1.050088   -2.217418    2.648594
| 27> C        1.340513    0.619038    2.979845
| 28> H        2.276059    0.647386    3.557074
| 29> H        0.683714   -0.121696    3.445256
| 30> H        0.861589    1.596880    3.080055
| 31> Ru       0.207249   -0.005545   -0.119227
| 32> Cl      -0.429544   -0.245973   -2.480800
| 33> P       -1.456891    1.528216    0.068580
| 34> C       -1.650760    2.737817   -1.304822
| 35> H       -1.703179    2.179367   -2.242601
| 36> H       -0.763254    3.377318   -1.338338
| 37> H       -2.542801    3.360896   -1.175052
| 38> C       -1.549065    2.651656    1.528190
| 39> H       -2.472379    3.241595    1.506577
| 40> H       -0.697323    3.336564    1.527717
| 41> H       -1.520496    2.059136    2.446687
| 42> C       -3.144680    0.720288    0.161598
| 43> H       -3.432756    0.709722    1.219807
| 44> H       -3.887248    1.321720   -0.374189
| 45> C        1.787636   -1.042026    1.001372
| 46> P       -1.484414   -1.469966    0.216463
| 47> H       -2.382409   -3.625079   -0.568542
| 48> H       -0.624918   -3.689033   -0.270965
| 49> H       -1.236340   -2.863867   -1.723131
| 50> C       -3.065590   -0.710530   -0.380679
| 51> C       -1.439182   -3.076884   -0.670420
| 52> C       -1.931261   -2.000447    1.926464
| 53> H       -2.988264   -0.701756   -1.472521
| 54> H       -3.935017   -1.311110   -0.088429
| 55> H       -1.104361   -2.563780    2.366010
| 56> H       -2.827619   -2.630913    1.925421
| 57> H       -2.109292   -1.117280    2.546403
| 58> *
| 59>
| 60> %maxcore 5000
| 61>
| 62> %pal
| 63> nprocs = 24
| 64> end
| 65>
| 66>
| 67>                          ****END OF INPUT****

CARTESIAN COORDINATES (ANGSTROEM)
---------------------------------
  C      1.962238    1.228976    0.498763
  C      1.599117    0.285883    1.541183
  C      2.190996   -0.926462   -0.368778
  C      2.300550    0.493131   -0.671789
  C      2.081248    2.713946    0.664976
  H      1.434728    3.080045    1.466376
  H      1.821015    3.245065   -0.254703
  H      3.112287    2.986784    0.927647
  C      2.741378    1.051608   -1.988266
  H      2.535990    2.123448   -2.051886
  H      2.213045    0.558789   -2.809947
  H      3.820515    0.902993   -2.128525
  C      2.527241   -2.035347   -1.317221
  H      3.613873   -2.134320   -1.446849
  H      2.080344   -1.846887   -2.298459
  H      2.144835   -2.993343   -0.953257
  C      1.716574   -2.315630    1.788054
  H      2.711935   -2.577282    2.171299
  H      1.368788   -3.152284    1.175589
  H      1.050088   -2.217418    2.648594
  C      1.340513    0.619038    2.979845
  H      2.276059    0.647386    3.557074
  H      0.683714   -0.121696    3.445256
  H      0.861589    1.596880    3.080055
  Ru     0.207249   -0.005545   -0.119227
  Cl    -0.429544   -0.245973   -2.480800
  P     -1.456891    1.528216    0.068580
  C     -1.650760    2.737817   -1.304822
  H     -1.703179    2.179367   -2.242601
  H     -0.763254    3.377318   -1.338338
  H     -2.542801    3.360896   -1.175052
  C     -1.549065    2.651656    1.528190
  H     -2.472379    3.241595    1.506577
  H     -0.697323    3.336564    1.527717
  H     -1.520496    2.059136    2.446687
  C     -3.144680    0.720288    0.161598
  H     -3.432756    0.709722    1.219807
  H     -3.887248    1.321720   -0.374189
  C      1.787636   -1.042026    1.001372
  P     -1.484414   -1.469966    0.216463
  H     -2.382409   -3.625079   -0.568542
  H     -0.624918   -3.689033   -0.270965
  H     -1.236340   -2.863867   -1.723131
  C     -3.065590   -0.710530   -0.380679
  C     -1.439182   -3.076884   -0.670420
  C     -1.931261   -2.000447    1.926464
  H     -2.988264   -0.701756   -1.472521
  H     -3.935017   -1.311110   -0.088429
  H     -1.104361   -2.563780    2.366010
  H     -2.827619   -2.630913    1.925421
  H     -2.109292   -1.117280    2.546403

 Total Charge           Charge          ....    0
 Multiplicity           Mult            ....    1
 Number of Electrons    NEL             ....  190
 Basis Dimension        Dim             .... 1322

ORBITAL ENERGIES
----------------

  NO   OCC          E(Eh)            E(eV)
   0   2.0000    -100.896791     -2745.5413
   1   2.0000     -76.596392     -2084.2938
   2   2.0000     -76.596319     -2084.2918
   3   2.0000     -10.000635      -272.1311
   4   2.0000      -9.997726      -272.0519
   5   2.0000      -9.994427      -271.9622
   6   2.0000      -9.993647      -271.9410
   7   2.0000      -9.992109      -271.8991
   8   2.0000      -9.989196      -271.8198
   9   2.0000      -9.988468      -271.8000
  10   2.0000      -9.988426      -271.7989
  11   2.0000      -9.987611      -271.7767
  12   2.0000      -9.987407      -271.7712
  13   2.0000      -9.987221      -271.7661
  14   2.0000      -9.986556      -271.7480
  15   2.0000      -9.979081      -271.5446
  16   2.0000      -9.975401      -271.4445
  17   2.0000      -9.973570      -271.3946
  18   2.0000      -9.971428      -271.3363
  19   2.0000      -9.146121      -248.8786
  20   2.0000      -6.922083      -188.3595
  21   2.0000      -6.917023      -188.2218
  22   2.0000      -6.916995      -188.2210
  23   2.0000      -6.369062      -173.3110
  24   2.0000      -6.368841      -173.3050
  25   2.0000      -4.546772      -123.7240
  26   2.0000      -4.546658      -123.7209
  27   2.0000      -4.546441      -123.7149
  28   2.0000      -4.546132      -123.7065
  29   2.0000      -4.543980      -123.6480
  30   2.0000      -4.543791      -123.6428
  31   2.0000      -2.868144       -78.0462
  32   2.0000      -1.758070       -47.8395
  33   2.0000      -1.734315       -47.1931
  34   2.0000      -1.733001       -47.1574
  35   2.0000      -0.819505       -22.2999
  36   2.0000      -0.738750       -20.1024
  37   2.0000      -0.719519       -19.5791
  38   2.0000      -0.713889       -19.4259
  39   2.0000      -0.699821       -19.0431
  40   2.0000      -0.673255       -18.3202
  41   2.0000      -0.665816       -18.1178
  42   2.0000      -0.658668       -17.9233
  43   2.0000      -0.656486       -17.8639
  44   2.0000      -0.652659       -17.7598
  45   2.0000      -0.641954       -17.4685
  46   2.0000      -0.638940       -17.3864
  47   2.0000      -0.580893       -15.8069
  48   2.0000      -0.570996       -15.5376
  49   2.0000      -0.564281       -15.3549
  50   2.0000      -0.512683       -13.9508
  51   2.0000      -0.477971       -13.0063
  52   2.0000      -0.466410       -12.6917
  53   2.0000      -0.465528       -12.6677
  54   2.0000      -0.423993       -11.5374
  55   2.0000      -0.420512       -11.4427
  56   2.0000      -0.413148       -11.2423
  57   2.0000      -0.408197       -11.1076
  58   2.0000      -0.396221       -10.7817
  59   2.0000      -0.391709       -10.6589
  60   2.0000      -0.390104       -10.6153
  61   2.0000      -0.386235       -10.5100
  62   2.0000      -0.384459       -10.4617
  63   2.0000      -0.380913       -10.3652
  64   2.0000      -0.376915       -10.2564
  65   2.0000      -0.374085       -10.1794
  66   2.0000      -0.371891       -10.1197
  67   2.0000      -0.366950        -9.9852
  68   2.0000      -0.365907        -9.9568
  69   2.0000      -0.362583        -9.8664
  70   2.0000      -0.359027        -9.7696
  71   2.0000      -0.355179        -9.6649
  72   2.0000      -0.352993        -9.6054
  73   2.0000      -0.351171        -9.5558
  74   2.0000      -0.338627        -9.2145
  75   2.0000      -0.335574        -9.1314
  76   2.0000      -0.333303        -9.0696
  77   2.0000      -0.332362        -9.0440
  78   2.0000      -0.309783        -8.4296
  79   2.0000      -0.303637        -8.2624
  80   2.0000      -0.299075        -8.1383
  81   2.0000      -0.295470        -8.0402
  82   2.0000      -0.293447        -7.9851
  83   2.0000      -0.289414        -7.8753
  84   2.0000      -0.280497        -7.6327
  85   2.0000      -0.263581        -7.1724
  86   2.0000      -0.263200        -7.1620
  87   2.0000      -0.257079        -6.9955
  88   2.0000      -0.227834        -6.1997
  89   2.0000      -0.220979        -6.0131
  90   2.0000      -0.208901        -5.6845
  91   2.0000      -0.206448        -5.6177
  92   2.0000      -0.172915        -4.7053
  93   2.0000      -0.154501        -4.2042
  94   2.0000      -0.140849        -3.8327
  95   0.0000      -0.034951        -0.9511
  96   0.0000      -0.018232        -0.4961
  97   0.0000      -0.015378        -0.4185
  98   0.0000      -0.000833        -0.0227
  99   0.0000       0.000627         0.0171

MULLIKEN ATOMIC CHARGES
-----------------------
   0 C :    0.267012
   1 C :    0.615009
   2 C :    0.426112
   3 C :    0.698597
   4 C :   -0.356484
   5 H :    0.021647
   6 H :    0.168380
   7 H :    0.024088
   8 C :   -0.591652
   9 H :    0.061283
  10 H :    0.087662
  11 H :    0.088649
  12 C :   -0.776647
  13 H :    0.081983
  14 H :    0.107819
  15 H :    0.074551
  16 C :   -0.358854
  17 H :    0.011887
  18 H :    0.161261
  19 H :    0.082851
  20 C :   -0.660219
  21 H :    0.018240
  22 H :    0.120818
  23 H :    0.118351
  24 Ru:   -1.999257
  25 Cl:   -0.625321
  26 P :    1.370376
  27 C :   -0.765467
  28 H :    0.113069
  29 H :    0.132928
  30 H :    0.188397
  31 C :   -0.750190
  32 H :    0.133554
  33 H :    0.139964
  34 H :    0.136420
  35 C :   -0.269073
  36 H :    0.165978
  37 H :    0.175159
  38 C :    0.365998
  39 P :    1.180724
  40 H :    0.162430
  41 H :    0.140517
  42 H :    0.121310
  43 C :   -0.002173
  44 C :   -0.658438
  45 C :   -0.744622
  46 H :    0.208482
  47 H :    0.149946
  48 H :    0.161060
  49 H :    0.147862
  50 H :    0.128024
Sum of atomic charges:    0.0000000

LOEWDIN ATOMIC CHARGES
----------------------
   0 C :   -0.244083
   1 C :   -0.260583
   2 C :   -0.263165
   3 C :   -0.260604
   4 C :    0.172198
   5 H :   -0.037920
   6 H :   -0.018275
   7 H :    0.002450
   8 C :    0.161890
   9 H :   -0.018541
  10 H :   -0.050608
  11 H :   -0.000985
  12 C :    0.166810
  13 H :   -0.003741
  14 H :   -0.032536
  15 H :   -0.021501
  16 C :    0.169115
  17 H :    0.003510
  18 H :   -0.024538
  19 H :   -0.032696
  20 C :    0.169258
  21 H :   -0.000793
  22 H :   -0.019643
  23 H :   -0.030030
  24 Ru:    0.502149
  25 Cl:    0.013214
  26 P :    0.808903
  27 C :   -0.024709
  28 H :   -0.098665
  29 H :   -0.060127
  30 H :   -0.054741
  31 C :   -0.008636
  32 H :   -0.049485
  33 H :   -0.072693
  34 H :   -0.061249
  35 C :   -0.195715
  36 H :   -0.033378
  37 H :   -0.023586
  38 C :   -0.259231
  39 P :    0.784555
  40 H :   -0.051179
  41 H :   -0.064937
  42 H :   -0.085223
  43 C :   -0.223901
  44 C :   -0.009555
  45 C :    0.007031
  46 H :   -0.056660
  47 H :   -0.022355
  48 H :   -0.074116
  49 H :   -0.050884
  50 H :   -0.059814

  Mayer bond orders larger than 0.100000
B(  0-C ,  1-C ) :  -0.3080 B(  0-C ,  2-C ) :  -0.2951 B(  0-C ,  3-C ) :   0.2899
B(  0-C ,  4-C ) :   1.0992 B(  0-C ,  8-C ) :  -0.1605 B(  0-C , 12-C ) :   0.1203
B(  0-C , 24-Ru) :   0.9328 B(  0-C , 38-C ) :   0.1628 B(  1-C ,  2-C ) :  -0.2071
B(  1-C ,  3-C ) :  -0.1076 B(  1-C ,  4-C ) :  -0.1487 B(  1-C , 20-C ) :   1.0717
B(  1-C , 22-H ) :  -0.1160 B(  1-C , 23-H ) :  -0.1074 B(  1-C , 24-Ru) :   0.1223
B(  1-C , 26-P ) :   0.3278 B(  1-C , 39-P ) :   0.1745 B(  2-C ,  3-C ) :   0.5274
B(  2-C ,  8-C ) :  -0.1234 B(  2-C , 12-C ) :   1.3773 B(  2-C , 24-Ru) :   0.2172
B(  2-C , 25-Cl) :  -0.2174 B(  2-C , 38-C ) :   0.2047 B(  2-C , 39-P ) :   0.1226
B(  3-C ,  8-C ) :   1.2789 B(  3-C , 12-C ) :  -0.2173 B(  3-C , 14-H ) :   0.1205
B(  3-C , 38-C ) :  -0.2705 B(  4-C ,  5-H ) :   1.0112 B(  4-C ,  6-H ) :   0.8999
B(  4-C ,  7-H ) :   0.9326 B(  4-C , 20-C ) :   0.1286 B(  8-C ,  9-H ) :   0.9475
B(  8-C , 10-H ) :   0.8699 B(  8-C , 11-H ) :   0.9119 B(  8-C , 12-C ) :   0.3322
B(  8-C , 24-Ru) :   0.2877 B(  8-C , 38-C ) :   0.1380 B( 12-C , 13-H ) :   0.8900
B( 12-C , 14-H ) :   0.8655 B( 12-C , 15-H ) :   0.9952 B( 12-C , 24-Ru) :   0.4452
B( 12-C , 38-C ) :  -0.3396 B( 16-C , 17-H ) :   0.9370 B( 16-C , 18-H ) :   0.9363
B( 16-C , 19-H ) :   0.9577 B( 16-C , 20-C ) :   0.1094 B( 16-C , 38-C ) :   1.0451
B( 20-C , 21-H ) :   0.8860 B( 20-C , 22-H ) :   0.9807 B( 20-C , 23-H ) :   0.9765
B( 20-C , 24-Ru) :   0.1235 B( 20-C , 38-C ) :  -0.1417 B( 24-Ru, 25-Cl) :   0.8827
B( 24-Ru, 26-P ) :   0.8751 B( 24-Ru, 27-C ) :   0.2365 B( 24-Ru, 31-C ) :   0.1971
B( 24-Ru, 38-C ) :   1.0569 B( 24-Ru, 39-P ) :   0.8542 B( 24-Ru, 43-C ) :   0.1252
B( 24-Ru, 44-C ) :   0.1634 B( 24-Ru, 45-C ) :   0.2387 B( 25-Cl, 26-P ) :  -0.2818
B( 26-P , 27-C ) :   0.8900 B( 26-P , 31-C ) :   0.7706 B( 26-P , 35-C ) :   0.6015
B( 26-P , 39-P ) :  -0.2382 B( 26-P , 43-C ) :   0.1948 B( 27-C , 28-H ) :   0.9811
B( 27-C , 29-H ) :   0.9904 B( 27-C , 30-H ) :   0.9415 B( 27-C , 31-C ) :   0.1796
B( 27-C , 35-C ) :   0.1370 B( 31-C , 32-H ) :   1.0115 B( 31-C , 33-H ) :   0.9643
B( 31-C , 34-H ) :   0.9943 B( 31-C , 35-C ) :   0.1872 B( 35-C , 36-H ) :   0.9128
B( 35-C , 37-H ) :   0.8644 B( 35-C , 39-P ) :   0.5189 B( 35-C , 43-C ) :   1.0201
B( 38-C , 45-C ) :   0.1169 B( 39-P , 43-C ) :   0.3167 B( 39-P , 44-C ) :   0.9457
B( 39-P , 45-C ) :   0.7478 B( 40-H , 44-C ) :   0.9453 B( 41-H , 44-C ) :   0.9819
B( 42-H , 44-C ) :   0.9291 B( 43-C , 45-C ) :   0.1713 B( 43-C , 46-H ) :   0.9175
B( 43-C , 47-H ) :   0.9062 B( 44-C , 45-C ) :   0.1484 B( 45-C , 48-H ) :   0.9979
B( 45-C , 49-H ) :   0.9707 B( 45-C , 50-H ) :   0.9951

Dispersion correction           -0.109701300
FINAL SINGLE POINT ENERGY     -1866.948843851906

DIPOLE MOMENT
-------------
                                X             Y             Z
Electronic contribution:     12.12114      -1.44877     -17.78739
Nuclear contribution   :    -12.48154       1.60484      19.54441
                        -----------------------------------------
Total Dipole Moment    :     -0.36040       0.15608       1.75702
                        -----------------------------------------
Magnitude (a.u.)       :      1.80038
Magnitude (Debye)      :      4.57619

Rotational constants in cm-1:     0.010225     0.008868     0.007900
Rotational constants in MHz :   306.523373   265.843264   236.824033

                             ****ORCA TERMINATED NORMALLY****
TOTAL RUN TIME: 0 days 0 hours 1 minutes 17 seconds 831 msec
