                         Program Version 4.2.0 -  RELEASE  -
|  1> #
|  2> # MOR36_pr37 TPSS-D3BJ/Def2-TZVPPD
|  3> #
|  4> ! tpss d3bj def2-tzvppd def2/j grid4 nofinalgrid
|  5>
|  6> *xyz 0 1
|  7> Mo       0.000106   -0.000070   -0.471377
|  8> C        0.514398   -1.514915   -1.646050
|  9> C        1.055079    1.202350   -1.646249
| 10> C       -1.568474    0.311983   -1.646660
| 11> O       -2.484520    0.493946   -2.346732
| 12> O        0.814970   -2.399453   -2.345765
| 13> O        1.670957    1.904692   -2.346079
| 14> N       -1.133555   -1.291008    0.811792
| 15> N       -0.551576    1.627166    0.811584
| 16> N        1.684684   -0.335905    0.812231
| 17> C        2.623715   -0.523292    1.470917
| 18> C       -0.858944    2.534303    1.469905
| 19> C       -1.765652   -2.010491    1.470244
| 20> C       -2.579903   -2.936733    2.238371
| 21> H       -3.631237   -2.631169    2.207389
| 22> H       -2.252645   -2.962558    3.282907
| 23> H       -2.496617   -3.945451    1.819577
| 24> C       -1.254401    3.702555    2.237857
| 25> H       -0.464690    4.460832    2.206160
| 26> H       -1.439592    3.432273    3.282594
| 27> H       -2.170183    4.133961    1.819442
| 28> C        3.832875   -0.764956    2.239344
| 29> H        4.094105   -1.828181    2.208653
| 30> H        3.691346   -0.468421    3.283785
| 31> H        4.664793   -0.188419    1.820591
| 32> *
| 33>
| 34> %maxcore 5000
| 35>
| 36> %pal
| 37> nprocs = 24
| 38> end
| 39>
| 40>
| 41>                          ****END OF INPUT****

CARTESIAN COORDINATES (ANGSTROEM)
---------------------------------
  Mo     0.000106   -0.000070   -0.471377
  C      0.514398   -1.514915   -1.646050
  C      1.055079    1.202350   -1.646249
  C     -1.568474    0.311983   -1.646660
  O     -2.484520    0.493946   -2.346732
  O      0.814970   -2.399453   -2.345765
  O      1.670957    1.904692   -2.346079
  N     -1.133555   -1.291008    0.811792
  N     -0.551576    1.627166    0.811584
  N      1.684684   -0.335905    0.812231
  C      2.623715   -0.523292    1.470917
  C     -0.858944    2.534303    1.469905
  C     -1.765652   -2.010491    1.470244
  C     -2.579903   -2.936733    2.238371
  H     -3.631237   -2.631169    2.207389
  H     -2.252645   -2.962558    3.282907
  H     -2.496617   -3.945451    1.819577
  C     -1.254401    3.702555    2.237857
  H     -0.464690    4.460832    2.206160
  H     -1.439592    3.432273    3.282594
  H     -2.170183    4.133961    1.819442
  C      3.832875   -0.764956    2.239344
  H      4.094105   -1.828181    2.208653
  H      3.691346   -0.468421    3.283785
  H      4.664793   -0.188419    1.820591

 Total Charge           Charge          ....    0
 Multiplicity           Mult            ....    1
 Number of Electrons    NEL             ....  122
 Basis Dimension        Dim             ....  773

ORBITAL ENERGIES
----------------

  NO   OCC          E(Eh)            E(eV)
   0   2.0000     -18.889229      -514.0020
   1   2.0000     -18.889226      -514.0020
   2   2.0000     -18.889223      -514.0019
   3   2.0000     -14.126729      -384.4078
   4   2.0000     -14.126724      -384.4077
   5   2.0000     -14.126719      -384.4076
   6   2.0000     -10.048829      -273.4425
   7   2.0000     -10.048826      -273.4425
   8   2.0000     -10.048823      -273.4424
   9   2.0000     -10.037543      -273.1354
  10   2.0000     -10.037542      -273.1354
  11   2.0000     -10.037540      -273.1353
  12   2.0000     -10.022903      -272.7371
  13   2.0000     -10.022900      -272.7370
  14   2.0000     -10.022896      -272.7369
  15   2.0000      -2.401248       -65.3413
  16   2.0000      -1.435447       -39.0605
  17   2.0000      -1.431977       -38.9661
  18   2.0000      -1.431976       -38.9660
  19   2.0000      -0.985212       -26.8090
  20   2.0000      -0.984618       -26.7928
  21   2.0000      -0.984614       -26.7927
  22   2.0000      -0.863337       -23.4926
  23   2.0000      -0.861088       -23.4314
  24   2.0000      -0.861083       -23.4313
  25   2.0000      -0.732496       -19.9322
  26   2.0000      -0.732093       -19.9213
  27   2.0000      -0.732092       -19.9212
  28   2.0000      -0.494963       -13.4686
  29   2.0000      -0.488585       -13.2951
  30   2.0000      -0.488583       -13.2950
  31   2.0000      -0.465732       -12.6732
  32   2.0000      -0.450834       -12.2678
  33   2.0000      -0.450833       -12.2678
  34   2.0000      -0.434095       -11.8123
  35   2.0000      -0.433630       -11.7997
  36   2.0000      -0.433630       -11.7997
  37   2.0000      -0.432999       -11.7825
  38   2.0000      -0.432999       -11.7825
  39   2.0000      -0.432594       -11.7715
  40   2.0000      -0.411663       -11.2019
  41   2.0000      -0.400299       -10.8927
  42   2.0000      -0.400293       -10.8925
  43   2.0000      -0.355233        -9.6664
  44   2.0000      -0.352490        -9.5917
  45   2.0000      -0.352489        -9.5917
  46   2.0000      -0.343299        -9.3416
  47   2.0000      -0.343296        -9.3416
  48   2.0000      -0.339980        -9.2513
  49   2.0000      -0.335681        -9.1344
  50   2.0000      -0.327347        -8.9076
  51   2.0000      -0.327344        -8.9075
  52   2.0000      -0.317378        -8.6363
  53   2.0000      -0.317376        -8.6362
  54   2.0000      -0.313243        -8.5238
  55   2.0000      -0.311033        -8.4636
  56   2.0000      -0.305478        -8.3125
  57   2.0000      -0.305478        -8.3125
  58   2.0000      -0.146861        -3.9963
  59   2.0000      -0.143487        -3.9045
  60   2.0000      -0.143484        -3.9044
  61   0.0000      -0.034076        -0.9273
  62   0.0000      -0.034068        -0.9270
  63   0.0000      -0.032447        -0.8829
  64   0.0000      -0.028563        -0.7772
  65   0.0000      -0.021120        -0.5747

MULLIKEN ATOMIC CHARGES
-----------------------
   0 Mo:   -1.069060
   1 C :    0.688554
   2 C :    0.687992
   3 C :    0.688096
   4 O :   -0.409608
   5 O :   -0.409816
   6 O :   -0.409636
   7 N :    0.162194
   8 N :    0.160910
   9 N :    0.163079
  10 C :   -0.153835
  11 C :   -0.152064
  12 C :   -0.151738
  13 C :   -0.144226
  14 H :    0.071691
  15 H :    0.073405
  16 H :    0.066768
  17 C :   -0.144023
  18 H :    0.071773
  19 H :    0.073298
  20 H :    0.067264
  21 C :   -0.141693
  22 H :    0.071261
  23 H :    0.072863
  24 H :    0.066552
Sum of atomic charges:   -0.0000000

LOEWDIN ATOMIC CHARGES
----------------------
   0 Mo:    0.500581
   1 C :   -0.278535
   2 C :   -0.278532
   3 C :   -0.278537
   4 O :    0.036143
   5 O :    0.036156
   6 O :    0.036154
   7 N :    0.060191
   8 N :    0.060193
   9 N :    0.060156
  10 C :   -0.129043
  11 C :   -0.129012
  12 C :   -0.129021
  13 C :    0.154028
  14 H :   -0.002548
  15 H :   -0.005820
  16 H :   -0.001294
  17 C :    0.154025
  18 H :   -0.002549
  19 H :   -0.005820
  20 H :   -0.001290
  21 C :    0.154040
  22 H :   -0.002547
  23 H :   -0.005824
  24 H :   -0.001296

  Mayer bond orders larger than 0.100000
B(  0-Mo,  1-C ) :   1.4955 B(  0-Mo,  2-C ) :   1.4955 B(  0-Mo,  3-C ) :   1.4949
B(  0-Mo,  4-O ) :   0.1663 B(  0-Mo,  5-O ) :   0.1665 B(  0-Mo,  6-O ) :   0.1664
B(  0-Mo,  7-N ) :   0.5462 B(  0-Mo,  8-N ) :   0.5443 B(  0-Mo,  9-N ) :   0.5478
B(  1-C ,  5-O ) :   1.7526 B(  2-C ,  6-O ) :   1.7525 B(  3-C ,  4-O ) :   1.7528
B(  7-N , 12-C ) :   2.6806 B(  8-N , 11-C ) :   2.6784 B(  9-N , 10-C ) :   2.6823
B( 10-C , 21-C ) :   0.8204 B( 11-C , 17-C ) :   0.8221 B( 12-C , 13-C ) :   0.8198
B( 13-C , 14-H ) :   0.9707 B( 13-C , 15-H ) :   0.9630 B( 13-C , 16-H ) :   0.9753
B( 17-C , 18-H ) :   0.9706 B( 17-C , 19-H ) :   0.9627 B( 17-C , 20-H ) :   0.9744
B( 21-C , 22-H ) :   0.9703 B( 21-C , 23-H ) :   0.9628 B( 21-C , 24-H ) :   0.9753

Dispersion correction           -0.038115265
FINAL SINGLE POINT ENERGY      -807.105440469964

DIPOLE MOMENT
-------------
                                X             Y             Z
Electronic contribution:      0.00907      -0.00588     -40.78795
Nuclear contribution   :     -0.01011       0.00649      45.69854
                        -----------------------------------------
Total Dipole Moment    :     -0.00104       0.00061       4.91059
                        -----------------------------------------
Magnitude (a.u.)       :      4.91059
Magnitude (Debye)      :     12.48174

Rotational constants in cm-1:     0.011429     0.011429     0.011227
Rotational constants in MHz :   342.640201   342.631727   336.586559

                             ****ORCA TERMINATED NORMALLY****
TOTAL RUN TIME: 0 days 0 hours 0 minutes 25 seconds 763 msec
