                         Program Version 4.2.0 -  RELEASE  -
|  1> #
|  2> # MOR31_pr20 TPSS-D3BJ/Def2-TZVPPD
|  3> #
|  4> ! tpss d3bj def2-tzvppd def2/j grid4 nofinalgrid
|  5>
|  6> *xyz 0 1
|  7> Ir       0.002477   -0.015286    0.083430
|  8> P       -2.348177   -0.226580   -0.058132
|  9> C       -2.872702   -1.550327   -1.188803
| 10> C       -3.160695   -0.601199    1.533451
| 11> H       -2.768983   -1.545856    1.920385
| 12> H       -3.035053    2.092169    0.038161
| 13> H       -4.244853   -0.682241    1.406776
| 14> H       -2.786362    1.529395   -1.637172
| 15> H       -3.965660   -1.602102   -1.229325
| 16> H       -2.934726    0.195116    2.248250
| 17> C       -3.202684    1.268779   -0.660861
| 18> H       -2.461852   -1.335119   -2.177902
| 19> H       -4.277134    1.082313   -0.755690
| 20> H       -2.448990   -2.494963   -0.841403
| 21> P        2.371733   -0.033051   -0.048079
| 22> C        3.118147   -1.146577    1.190097
| 23> C        2.988864   -0.646513   -1.645491
| 24> H        2.993037    2.252530   -0.586719
| 25> H        4.326367    1.397945    0.228668
| 26> H        2.927925    1.991387    1.168046
| 27> C        3.242996    1.555288    0.216058
| 28> H        4.081131   -0.719105   -1.623165
| 29> H        2.539412   -1.627874   -1.816909
| 30> H        4.198017   -1.226939    1.030710
| 31> H        2.645385   -2.126625    1.084325
| 32> H        2.665924    0.027013   -2.441495
| 33> H        2.928294   -0.762471    2.196181
| 34> C        0.041875   -0.376924    1.901008
| 35> O        0.060916   -0.624538    3.028225
| 36> Cl       0.274891   -2.517433   -0.343637
| 37> C       -0.190594    2.003978    0.494123
| 38> O       -0.529496    2.399253    1.599170
| 39> Cl      -0.136178    0.364638   -2.291447
| 40> C        0.062980    3.028488   -0.607541
| 41> H        0.210382    4.010245   -0.149220
| 42> H       -0.815546    3.056386   -1.260585
| 43> H        0.900599    2.750150   -1.247819
| 44> *
| 45>
| 46> %maxcore 5000
| 47>
| 48> %pal
| 49> nprocs = 24
| 50> end
| 51>
| 52>
| 53>                          ****END OF INPUT****

CARTESIAN COORDINATES (ANGSTROEM)
---------------------------------
  Ir     0.002477   -0.015286    0.083430
  P     -2.348177   -0.226580   -0.058132
  C     -2.872702   -1.550327   -1.188803
  C     -3.160695   -0.601199    1.533451
  H     -2.768983   -1.545856    1.920385
  H     -3.035053    2.092169    0.038161
  H     -4.244853   -0.682241    1.406776
  H     -2.786362    1.529395   -1.637172
  H     -3.965660   -1.602102   -1.229325
  H     -2.934726    0.195116    2.248250
  C     -3.202684    1.268779   -0.660861
  H     -2.461852   -1.335119   -2.177902
  H     -4.277134    1.082313   -0.755690
  H     -2.448990   -2.494963   -0.841403
  P      2.371733   -0.033051   -0.048079
  C      3.118147   -1.146577    1.190097
  C      2.988864   -0.646513   -1.645491
  H      2.993037    2.252530   -0.586719
  H      4.326367    1.397945    0.228668
  H      2.927925    1.991387    1.168046
  C      3.242996    1.555288    0.216058
  H      4.081131   -0.719105   -1.623165
  H      2.539412   -1.627874   -1.816909
  H      4.198017   -1.226939    1.030710
  H      2.645385   -2.126625    1.084325
  H      2.665924    0.027013   -2.441495
  H      2.928294   -0.762471    2.196181
  C      0.041875   -0.376924    1.901008
  O      0.060916   -0.624538    3.028225
  Cl     0.274891   -2.517433   -0.343637
  C     -0.190594    2.003978    0.494123
  O     -0.529496    2.399253    1.599170
  Cl    -0.136178    0.364638   -2.291447
  C      0.062980    3.028488   -0.607541
  H      0.210382    4.010245   -0.149220
  H     -0.815546    3.056386   -1.260585
  H      0.900599    2.750150   -1.247819

 Total Charge           Charge          ....    0
 Multiplicity           Mult            ....    1
 Number of Electrons    NEL             ....  172
 Basis Dimension        Dim             .... 1027

ORBITAL ENERGIES
----------------

  NO   OCC          E(Eh)            E(eV)
   0   2.0000    -100.932476     -2746.5123
   1   2.0000    -100.907879     -2745.8430
   2   2.0000     -76.633303     -2085.2982
   3   2.0000     -76.633252     -2085.2968
   4   2.0000     -18.957959      -515.8723
   5   2.0000     -18.870479      -513.4918
   6   2.0000     -10.105818      -274.9933
   7   2.0000     -10.066420      -273.9212
   8   2.0000     -10.011228      -272.4194
   9   2.0000     -10.008263      -272.3387
  10   2.0000     -10.006121      -272.2804
  11   2.0000     -10.002977      -272.1949
  12   2.0000      -9.996979      -272.0316
  13   2.0000      -9.995755      -271.9983
  14   2.0000      -9.986532      -271.7473
  15   2.0000      -9.182559      -249.8701
  16   2.0000      -9.157503      -249.1883
  17   2.0000      -6.958794      -189.3584
  18   2.0000      -6.953359      -189.2105
  19   2.0000      -6.953065      -189.2025
  20   2.0000      -6.933403      -188.6675
  21   2.0000      -6.928531      -188.5349
  22   2.0000      -6.928256      -188.5274
  23   2.0000      -6.406839      -174.3390
  24   2.0000      -6.406809      -174.3381
  25   2.0000      -4.584218      -124.7429
  26   2.0000      -4.584217      -124.7429
  27   2.0000      -4.583813      -124.7319
  28   2.0000      -4.583789      -124.7312
  29   2.0000      -4.582370      -124.6926
  30   2.0000      -4.582317      -124.6912
  31   2.0000      -3.622907       -98.5843
  32   2.0000      -1.999183       -54.4005
  33   2.0000      -1.988620       -54.1131
  34   2.0000      -1.980835       -53.9013
  35   2.0000      -1.059306       -28.8252
  36   2.0000      -0.964698       -26.2508
  37   2.0000      -0.741713       -20.1830
  38   2.0000      -0.738645       -20.0995
  39   2.0000      -0.701927       -19.1004
  40   2.0000      -0.679039       -18.4776
  41   2.0000      -0.672394       -18.2968
  42   2.0000      -0.667442       -18.1620
  43   2.0000      -0.665413       -18.1068
  44   2.0000      -0.660306       -17.9678
  45   2.0000      -0.658878       -17.9290
  46   2.0000      -0.545403       -14.8412
  47   2.0000      -0.525027       -14.2867
  48   2.0000      -0.515380       -14.0242
  49   2.0000      -0.490584       -13.3495
  50   2.0000      -0.447469       -12.1763
  51   2.0000      -0.435653       -11.8547
  52   2.0000      -0.429695       -11.6926
  53   2.0000      -0.424805       -11.5595
  54   2.0000      -0.422800       -11.5050
  55   2.0000      -0.415567       -11.3082
  56   2.0000      -0.413253       -11.2452
  57   2.0000      -0.411501       -11.1975
  58   2.0000      -0.407198       -11.0804
  59   2.0000      -0.405864       -11.0441
  60   2.0000      -0.398672       -10.8484
  61   2.0000      -0.390356       -10.6221
  62   2.0000      -0.386127       -10.5070
  63   2.0000      -0.383823       -10.4444
  64   2.0000      -0.380948       -10.3661
  65   2.0000      -0.379056       -10.3146
  66   2.0000      -0.370072       -10.0702
  67   2.0000      -0.369463       -10.0536
  68   2.0000      -0.347133        -9.4460
  69   2.0000      -0.342147        -9.3103
  70   2.0000      -0.333857        -9.0847
  71   2.0000      -0.332652        -9.0519
  72   2.0000      -0.328366        -8.9353
  73   2.0000      -0.326509        -8.8848
  74   2.0000      -0.319912        -8.7052
  75   2.0000      -0.296230        -8.0608
  76   2.0000      -0.290363        -7.9012
  77   2.0000      -0.283658        -7.7187
  78   2.0000      -0.274673        -7.4742
  79   2.0000      -0.271081        -7.3765
  80   2.0000      -0.251688        -6.8488
  81   2.0000      -0.224075        -6.0974
  82   2.0000      -0.223616        -6.0849
  83   2.0000      -0.209672        -5.7055
  84   2.0000      -0.208630        -5.6771
  85   2.0000      -0.188296        -5.1238
  86   0.0000      -0.054609        -1.4860
  87   0.0000      -0.052232        -1.4213
  88   0.0000      -0.046096        -1.2543
  89   0.0000      -0.041881        -1.1396
  90   0.0000      -0.028441        -0.7739

MULLIKEN ATOMIC CHARGES
-----------------------
   0 Ir:    0.751659
   1 P :    0.601150
   2 C :   -0.436583
   3 C :   -0.433185
   4 H :    0.107305
   5 H :    0.105827
   6 H :    0.139906
   7 H :    0.144767
   8 H :    0.164342
   9 H :    0.090162
  10 C :   -0.426692
  11 H :    0.110617
  12 H :    0.152063
  13 H :    0.151943
  14 P :    0.424107
  15 C :   -0.460745
  16 C :   -0.388496
  17 H :    0.108908
  18 H :    0.134382
  19 H :    0.099020
  20 C :   -0.386939
  21 H :    0.165146
  22 H :    0.097615
  23 H :    0.156970
  24 H :    0.180490
  25 H :    0.142038
  26 H :    0.103333
  27 C :    0.450467
  28 O :   -0.452305
  29 Cl:   -0.672118
  30 C :    0.686088
  31 O :   -0.728719
  32 Cl:   -0.641664
  33 C :   -0.540416
  34 H :    0.023261
  35 H :    0.125045
  36 H :    0.151254
Sum of atomic charges:   -0.0000000

LOEWDIN ATOMIC CHARGES
----------------------
   0 Ir:    0.531303
   1 P :    0.767641
   2 C :   -0.032237
   3 C :    0.010468
   4 H :   -0.043396
   5 H :   -0.048239
   6 H :   -0.044094
   7 H :   -0.068938
   8 H :   -0.044054
   9 H :   -0.044137
  10 C :    0.001780
  11 H :   -0.074198
  12 H :   -0.043404
  13 H :   -0.090090
  14 P :    0.762386
  15 C :   -0.010305
  16 C :   -0.035541
  17 H :   -0.058854
  18 H :   -0.044486
  19 H :   -0.042620
  20 C :    0.012398
  21 H :   -0.043873
  22 H :   -0.080379
  23 H :   -0.044240
  24 H :   -0.082020
  25 H :   -0.080813
  26 H :   -0.049854
  27 C :   -0.439616
  28 O :    0.122406
  29 Cl:   -0.094511
  30 C :   -0.554702
  31 O :   -0.018491
  32 Cl:    0.021698
  33 C :    0.094465
  34 H :   -0.009411
  35 H :   -0.034998
  36 H :   -0.067043

  Mayer bond orders larger than 0.100000
B(  0-Ir,  1-P ) :   0.5455 B(  0-Ir, 14-P ) :   0.6717 B(  0-Ir, 27-C ) :   1.2136
B(  0-Ir, 28-O ) :   0.1901 B(  0-Ir, 29-Cl) :   0.1696 B(  0-Ir, 30-C ) :   0.6991
B(  0-Ir, 31-O ) :   0.1906 B(  0-Ir, 32-Cl) :   0.1411 B(  0-Ir, 33-C ) :   0.2304
B(  1-P ,  2-C ) :   1.0589 B(  1-P ,  3-C ) :   0.8806 B(  1-P , 10-C ) :   0.9269
B(  1-P , 32-Cl) :   0.1943 B(  2-C ,  3-C ) :   0.1088 B(  2-C ,  8-H ) :   0.9288
B(  2-C , 11-H ) :   0.9375 B(  2-C , 13-H ) :   0.9449 B(  3-C ,  4-H ) :   0.9623
B(  3-C ,  6-H ) :   0.9402 B(  3-C ,  9-H ) :   1.0015 B(  3-C , 10-C ) :   0.1243
B(  5-H , 10-C ) :   1.0003 B(  7-H , 10-C ) :   0.9486 B( 10-C , 12-H ) :   0.9400
B( 14-P , 15-C ) :   0.9137 B( 14-P , 16-C ) :   1.0912 B( 14-P , 20-C ) :   0.8481
B( 14-P , 29-Cl) :   0.2257 B( 14-P , 32-Cl) :   0.1742 B( 15-C , 20-C ) :   0.1138
B( 15-C , 23-H ) :   0.9385 B( 15-C , 24-H ) :   0.9536 B( 15-C , 26-H ) :   0.9812
B( 16-C , 21-H ) :   0.9375 B( 16-C , 22-H ) :   0.9419 B( 16-C , 25-H ) :   0.9486
B( 17-H , 20-C ) :   0.9760 B( 18-H , 20-C ) :   0.9407 B( 19-H , 20-C ) :   0.9832
B( 27-C , 28-O ) :   1.7651 B( 27-C , 30-C ) :   0.1379 B( 29-Cl, 30-C ) :   0.1058
B( 30-C , 31-O ) :   1.1033 B( 30-C , 33-C ) :   0.9693 B( 31-O , 33-C ) :   0.1152
B( 33-C , 34-H ) :   1.0383 B( 33-C , 35-H ) :   0.9154 B( 33-C , 36-H ) :   0.9811

Dispersion correction           -0.082405784
FINAL SINGLE POINT ENERGY     -2214.299291964737

DIPOLE MOMENT
-------------
                                X             Y             Z
Electronic contribution:      0.13929      -7.69929      12.05037
Nuclear contribution   :     -0.04564       8.50954     -11.91616
                        -----------------------------------------
Total Dipole Moment    :      0.09365       0.81025       0.13420
                        -----------------------------------------
Magnitude (a.u.)       :      0.82661
Magnitude (Debye)      :      2.10107

Rotational constants in cm-1:     0.013559     0.009254     0.008806
Rotational constants in MHz :   406.483484   277.425577   264.007304

                             ****ORCA TERMINATED NORMALLY****
TOTAL RUN TIME: 0 days 0 hours 0 minutes 49 seconds 538 msec
