                         Program Version 4.2.0 -  RELEASE  -
|  1> #
|  2> # MOR30_pr12 TPSS-D3BJ/Def2-TZVPPD
|  3> #
|  4> ! tpss d3bj def2-tzvppd def2/j grid4 nofinalgrid
|  5>
|  6> *xyz 0 1
|  7> Cr      -0.000015    0.000077   -0.030936
|  8> O       -3.048010    0.000059    0.176284
|  9> C       -1.899390    0.000055    0.076972
| 10> C        0.001618   -0.001981    1.838499
| 11> O        0.002800   -0.003409    2.993522
| 12> C        1.899510    0.000027    0.074271
| 13> O        3.048267   -0.000019    0.172029
| 14> C       -0.000196    1.904845   -0.051611
| 15> O       -0.000396    3.057825   -0.041163
| 16> C       -0.000244   -1.904616   -0.055186
| 17> O       -0.000506   -3.057616   -0.046760
| 18> C       -0.692601    0.002127   -2.246320
| 19> H       -1.244106   -0.917771   -2.406195
| 20> H       -1.243862    0.922423   -2.404834
| 21> C        0.689570    0.001986   -2.247230
| 22> H        1.240812    0.922165   -2.406446
| 23> H        1.240675   -0.918028   -2.407739
| 24> *
| 25>
| 26> %maxcore 5000
| 27>
| 28> %pal
| 29> nprocs = 24
| 30> end
| 31>
| 32>
| 33>                          ****END OF INPUT****

CARTESIAN COORDINATES (ANGSTROEM)
---------------------------------
  Cr    -0.000015    0.000077   -0.030936
  O     -3.048010    0.000059    0.176284
  C     -1.899390    0.000055    0.076972
  C      0.001618   -0.001981    1.838499
  O      0.002800   -0.003409    2.993522
  C      1.899510    0.000027    0.074271
  O      3.048267   -0.000019    0.172029
  C     -0.000196    1.904845   -0.051611
  O     -0.000396    3.057825   -0.041163
  C     -0.000244   -1.904616   -0.055186
  O     -0.000506   -3.057616   -0.046760
  C     -0.692601    0.002127   -2.246320
  H     -1.244106   -0.917771   -2.406195
  H     -1.243862    0.922423   -2.404834
  C      0.689570    0.001986   -2.247230
  H      1.240812    0.922165   -2.406446
  H      1.240675   -0.918028   -2.407739

 Total Charge           Charge          ....    0
 Multiplicity           Mult            ....    1
 Number of Electrons    NEL             ....  110
 Basis Dimension        Dim             ....  594

ORBITAL ENERGIES
----------------

  NO   OCC          E(Eh)            E(eV)
   0   2.0000    -214.976515     -5849.8084
   1   2.0000     -24.396694      -663.8678
   2   2.0000     -20.705023      -563.4123
   3   2.0000     -20.703269      -563.3646
   4   2.0000     -20.702931      -563.3554
   5   2.0000     -18.967761      -516.1390
   6   2.0000     -18.967757      -516.1389
   7   2.0000     -18.966209      -516.0968
   8   2.0000     -18.966209      -516.0968
   9   2.0000     -18.956952      -515.8449
  10   2.0000     -10.103496      -274.9301
  11   2.0000     -10.103494      -274.9300
  12   2.0000     -10.099380      -274.8181
  13   2.0000     -10.099375      -274.8180
  14   2.0000     -10.096163      -274.7306
  15   2.0000     -10.033046      -273.0131
  16   2.0000     -10.032608      -273.0011
  17   2.0000      -2.773646       -75.4747
  18   2.0000      -1.749061       -47.5944
  19   2.0000      -1.745154       -47.4881
  20   2.0000      -1.745001       -47.4839
  21   2.0000      -1.067547       -29.0494
  22   2.0000      -1.067110       -29.0375
  23   2.0000      -1.066711       -29.0267
  24   2.0000      -1.066470       -29.0201
  25   2.0000      -1.056877       -28.7591
  26   2.0000      -0.748110       -20.3571
  27   2.0000      -0.581762       -15.8305
  28   2.0000      -0.558355       -15.1936
  29   2.0000      -0.521502       -14.1908
  30   2.0000      -0.518330       -14.1045
  31   2.0000      -0.517417       -14.0796
  32   2.0000      -0.512074       -13.9342
  33   2.0000      -0.469150       -12.7662
  34   2.0000      -0.447333       -12.1726
  35   2.0000      -0.434787       -11.8312
  36   2.0000      -0.433201       -11.7880
  37   2.0000      -0.431602       -11.7445
  38   2.0000      -0.429709       -11.6930
  39   2.0000      -0.421448       -11.4682
  40   2.0000      -0.419222       -11.4076
  41   2.0000      -0.417101       -11.3499
  42   2.0000      -0.410978       -11.1833
  43   2.0000      -0.408111       -11.1053
  44   2.0000      -0.405083       -11.0229
  45   2.0000      -0.405037       -11.0216
  46   2.0000      -0.403069       -10.9681
  47   2.0000      -0.383823       -10.4443
  48   2.0000      -0.371012       -10.0957
  49   2.0000      -0.367563       -10.0019
  50   2.0000      -0.360055        -9.7976
  51   2.0000      -0.302184        -8.2228
  52   2.0000      -0.228271        -6.2116
  53   2.0000      -0.225356        -6.1322
  54   2.0000      -0.213356        -5.8057
  55   0.0000      -0.085082        -2.3152
  56   0.0000      -0.076155        -2.0723
  57   0.0000      -0.072293        -1.9672
  58   0.0000      -0.063509        -1.7282
  59   0.0000      -0.061953        -1.6858

MULLIKEN ATOMIC CHARGES
-----------------------
   0 Cr:   -1.665699
   1 O :   -0.353622
   2 C :    0.616115
   3 C :    0.664118
   4 O :   -0.352924
   5 C :    0.616585
   6 O :   -0.353730
   7 C :    0.643497
   8 O :   -0.347155
   9 C :    0.643343
  10 O :   -0.347133
  11 C :   -0.124664
  12 H :    0.121481
  13 H :    0.121413
  14 C :   -0.124534
  15 H :    0.121424
  16 H :    0.121485
Sum of atomic charges:   -0.0000000

LOEWDIN ATOMIC CHARGES
----------------------
   0 Cr:   -0.346331
   1 O :    0.163250
   2 C :   -0.121068
   3 C :   -0.133537
   4 O :    0.155604
   5 C :   -0.121079
   6 O :    0.163251
   7 C :   -0.092592
   8 O :    0.158615
   9 C :   -0.092629
  10 O :    0.158623
  11 C :    0.082564
  12 H :   -0.014315
  13 H :   -0.014292
  14 C :    0.082553
  15 H :   -0.014293
  16 H :   -0.014324

  Mayer bond orders larger than 0.100000
B(  0-Cr,  1-O ) :   0.2314 B(  0-Cr,  2-C ) :   0.9730 B(  0-Cr,  3-C ) :   1.1688
B(  0-Cr,  4-O ) :   0.2501 B(  0-Cr,  5-C ) :   0.9731 B(  0-Cr,  6-O ) :   0.2316
B(  0-Cr,  7-C ) :   1.0075 B(  0-Cr,  8-O ) :   0.2919 B(  0-Cr,  9-C ) :   1.0068
B(  0-Cr, 10-O ) :   0.2923 B(  0-Cr, 11-C ) :   0.2867 B(  0-Cr, 14-C ) :   0.2869
B(  1-O ,  2-C ) :   1.8278 B(  3-C ,  4-O ) :   1.8638 B(  5-C ,  6-O ) :   1.8277
B(  7-C ,  8-O ) :   1.7989 B(  9-C , 10-O ) :   1.7982 B( 11-C , 12-H ) :   1.0688
B( 11-C , 13-H ) :   1.0691 B( 11-C , 14-C ) :   1.1502 B( 14-C , 15-H ) :   1.0689
B( 14-C , 16-H ) :   1.0689

Dispersion correction           -0.030007850
FINAL SINGLE POINT ENERGY     -1690.319014474290

DIPOLE MOMENT
-------------
                                X             Y             Z
Electronic contribution:      0.00524      -0.00679       7.75193
Nuclear contribution   :     -0.00600       0.00791      -8.87043
                        -----------------------------------------
Total Dipole Moment    :     -0.00076       0.00112      -1.11850
                        -----------------------------------------
Magnitude (a.u.)       :      1.11850
Magnitude (Debye)      :      2.84301

Rotational constants in cm-1:     0.023439     0.023057     0.021301
Rotational constants in MHz :   702.695821   691.231713   638.589543

                             ****ORCA TERMINATED NORMALLY****
TOTAL RUN TIME: 0 days 0 hours 0 minutes 18 seconds 177 msec
