                         Program Version 4.2.0 -  RELEASE  -
|  1> #
|  2> # MOR35_pr36 TPSS-D3BJ/Def2-TZVPPD
|  3> #
|  4> ! tpss d3bj def2-tzvppd def2/j grid4 nofinalgrid
|  5>
|  6> *xyz 0 1
|  7> Mo       0.001156    0.812745    0.000207
|  8> C        1.172497    1.772826   -1.694485
|  9> C        0.639726    0.579325   -2.273801
| 10> C       -0.771247    0.649846   -2.254302
| 11> C       -1.164711    1.879753   -1.653638
| 12> C        0.046469    2.597671   -1.356619
| 13> H        2.218029    2.030602   -1.618416
| 14> H        1.217264   -0.260486   -2.625291
| 15> H       -1.439014   -0.129218   -2.585395
| 16> H       -2.178363    2.230425   -1.528995
| 17> H        0.103229    3.616282   -1.010207
| 18> C       -0.046468    2.595414    1.359819
| 19> C       -1.170703    1.767726    1.696458
| 20> C        0.775662    0.648005    2.254259
| 21> C        1.166251    1.879509    1.655532
| 22> H       -2.216820    2.023173    1.620920
| 23> H       -1.210568   -0.267639    2.623707
| 24> C       -0.635131    0.574168    2.273601
| 25> H        2.179106    2.232469    1.530897
| 26> H       -0.105362    3.614384    1.014912
| 27> H        1.445278   -0.130208    2.583598
| 28> I        1.897907   -1.310822   -0.012606
| 29> I       -1.900461   -1.307301    0.011561
| 30> *
| 31>
| 32> %maxcore 5000
| 33>
| 34> %pal
| 35> nprocs = 24
| 36> end
| 37>
| 38>
| 39>                          ****END OF INPUT****

CARTESIAN COORDINATES (ANGSTROEM)
---------------------------------
  Mo     0.001156    0.812745    0.000207
  C      1.172497    1.772826   -1.694485
  C      0.639726    0.579325   -2.273801
  C     -0.771247    0.649846   -2.254302
  C     -1.164711    1.879753   -1.653638
  C      0.046469    2.597671   -1.356619
  H      2.218029    2.030602   -1.618416
  H      1.217264   -0.260486   -2.625291
  H     -1.439014   -0.129218   -2.585395
  H     -2.178363    2.230425   -1.528995
  H      0.103229    3.616282   -1.010207
  C     -0.046468    2.595414    1.359819
  C     -1.170703    1.767726    1.696458
  C      0.775662    0.648005    2.254259
  C      1.166251    1.879509    1.655532
  H     -2.216820    2.023173    1.620920
  H     -1.210568   -0.267639    2.623707
  C     -0.635131    0.574168    2.273601
  H      2.179106    2.232469    1.530897
  H     -0.105362    3.614384    1.014912
  H      1.445278   -0.130208    2.583598
  I      1.897907   -1.310822   -0.012606
  I     -1.900461   -1.307301    0.011561

 Total Charge           Charge          ....    0
 Multiplicity           Mult            ....    1
 Number of Electrons    NEL             ....  134
 Basis Dimension        Dim             ....  714

ORBITAL ENERGIES
----------------

  NO   OCC          E(Eh)            E(eV)
   0   2.0000     -10.040070      -273.2042
   1   2.0000     -10.039983      -273.2018
   2   2.0000     -10.033767      -273.0327
   3   2.0000     -10.033729      -273.0316
   4   2.0000     -10.032150      -272.9887
   5   2.0000     -10.032018      -272.9851
   6   2.0000     -10.030286      -272.9380
   7   2.0000     -10.030227      -272.9364
   8   2.0000     -10.028953      -272.9017
   9   2.0000     -10.028901      -272.9003
  10   2.0000      -6.597893      -179.5378
  11   2.0000      -6.597854      -179.5367
  12   2.0000      -4.653616      -126.6313
  13   2.0000      -4.653584      -126.6304
  14   2.0000      -4.644935      -126.3951
  15   2.0000      -4.644894      -126.3940
  16   2.0000      -4.644353      -126.3793
  17   2.0000      -4.644314      -126.3782
  18   2.0000      -2.497605       -67.9633
  19   2.0000      -1.768190       -48.1149
  20   2.0000      -1.768153       -48.1139
  21   2.0000      -1.766330       -48.0643
  22   2.0000      -1.766296       -48.0634
  23   2.0000      -1.765904       -48.0527
  24   2.0000      -1.765848       -48.0512
  25   2.0000      -1.758702       -47.8567
  26   2.0000      -1.758660       -47.8556
  27   2.0000      -1.758642       -47.8551
  28   2.0000      -1.758600       -47.8539
  29   2.0000      -1.545946       -42.0673
  30   2.0000      -1.525917       -41.5223
  31   2.0000      -1.508605       -41.0512
  32   2.0000      -0.862181       -23.4611
  33   2.0000      -0.848702       -23.0943
  34   2.0000      -0.701340       -19.0844
  35   2.0000      -0.694219       -18.8907
  36   2.0000      -0.692680       -18.8488
  37   2.0000      -0.691060       -18.8047
  38   2.0000      -0.596610       -16.2346
  39   2.0000      -0.588461       -16.0128
  40   2.0000      -0.547529       -14.8990
  41   2.0000      -0.531332       -14.4583
  42   2.0000      -0.528609       -14.3842
  43   2.0000      -0.527822       -14.3628
  44   2.0000      -0.523322       -14.2403
  45   2.0000      -0.513683       -13.9780
  46   2.0000      -0.412873       -11.2349
  47   2.0000      -0.402932       -10.9643
  48   2.0000      -0.400423       -10.8961
  49   2.0000      -0.400389       -10.8951
  50   2.0000      -0.396961       -10.8019
  51   2.0000      -0.379719       -10.3327
  52   2.0000      -0.375661       -10.2222
  53   2.0000      -0.372964       -10.1489
  54   2.0000      -0.370647       -10.0858
  55   2.0000      -0.365534        -9.9467
  56   2.0000      -0.295112        -8.0304
  57   2.0000      -0.290265        -7.8985
  58   2.0000      -0.284283        -7.7357
  59   2.0000      -0.267539        -7.2801
  60   2.0000      -0.262115        -7.1325
  61   2.0000      -0.251768        -6.8510
  62   2.0000      -0.234090        -6.3699
  63   2.0000      -0.196621        -5.3503
  64   2.0000      -0.195824        -5.3286
  65   2.0000      -0.184620        -5.0238
  66   2.0000      -0.168967        -4.5978
  67   0.0000      -0.096573        -2.6279
  68   0.0000      -0.089903        -2.4464
  69   0.0000      -0.074473        -2.0265
  70   0.0000      -0.049989        -1.3603
  71   0.0000      -0.021158        -0.5757

MULLIKEN ATOMIC CHARGES
-----------------------
   0 Mo:   -1.537330
   1 C :    0.579024
   2 C :   -0.275404
   3 C :   -0.260273
   4 C :    0.637994
   5 C :   -0.065048
   6 H :   -0.116019
   7 H :    0.224345
   8 H :    0.270569
   9 H :   -0.060027
  10 H :    0.114596
  11 C :   -0.065933
  12 C :    0.576003
  13 C :   -0.265144
  14 C :    0.643537
  15 H :   -0.116512
  16 H :    0.221940
  17 C :   -0.272252
  18 H :   -0.058620
  19 H :    0.115139
  20 H :    0.271483
  21 I :   -0.281187
  22 I :   -0.280881
Sum of atomic charges:    0.0000000

LOEWDIN ATOMIC CHARGES
----------------------
   0 Mo:    0.678212
   1 C :   -0.081324
   2 C :   -0.144190
   3 C :   -0.138332
   4 C :   -0.066866
   5 C :   -0.077099
   6 H :    0.003880
   7 H :   -0.047904
   8 H :   -0.049300
   9 H :    0.006866
  10 H :   -0.002945
  11 C :   -0.077254
  12 C :   -0.081918
  13 C :   -0.138199
  14 C :   -0.066429
  15 H :    0.003764
  16 H :   -0.048168
  17 C :   -0.144600
  18 H :    0.006920
  19 H :   -0.002972
  20 H :   -0.049440
  21 I :    0.258327
  22 I :    0.258974

  Mayer bond orders larger than 0.100000
B(  0-Mo,  1-C ) :   0.1993 B(  0-Mo,  2-C ) :   0.7186 B(  0-Mo,  3-C ) :   0.6601
B(  0-Mo,  4-C ) :   0.1730 B(  0-Mo,  5-C ) :   1.0255 B(  0-Mo,  6-H ) :   0.1065
B(  0-Mo, 11-C ) :   1.0258 B(  0-Mo, 12-C ) :   0.2019 B(  0-Mo, 13-C ) :   0.6648
B(  0-Mo, 14-C ) :   0.1677 B(  0-Mo, 15-H ) :   0.1068 B(  0-Mo, 17-C ) :   0.7160
B(  0-Mo, 21-I ) :   0.8309 B(  0-Mo, 22-I ) :   0.8307 B(  1-C ,  2-C ) :   0.6192
B(  1-C ,  3-C ) :  -0.1915 B(  1-C ,  5-C ) :   0.7653 B(  1-C ,  6-H ) :   1.0993
B(  1-C , 11-C ) :  -0.1835 B(  1-C , 12-C ) :   0.1580 B(  1-C , 14-C ) :   0.3664
B(  2-C ,  3-C ) :   0.8345 B(  2-C ,  4-C ) :  -0.1953 B(  2-C ,  7-H ) :   1.1287
B(  2-C , 21-I ) :   0.2087 B(  3-C ,  4-C ) :   0.6483 B(  3-C ,  8-H ) :   1.0806
B(  3-C , 22-I ) :   0.2421 B(  4-C ,  5-C ) :   0.8013 B(  4-C ,  9-H ) :   1.0621
B(  4-C , 11-C ) :  -0.1907 B(  4-C , 12-C ) :   0.3692 B(  4-C , 14-C ) :   0.1435
B(  5-C , 10-H ) :   1.0199 B(  5-C , 11-C ) :   0.3523 B(  5-C , 12-C ) :  -0.1837
B(  5-C , 14-C ) :  -0.1908 B(  7-H , 21-I ) :  -0.1832 B(  8-H , 22-I ) :  -0.1996
B( 11-C , 12-C ) :   0.7676 B( 11-C , 14-C ) :   0.8005 B( 11-C , 19-H ) :   1.0195
B( 12-C , 13-C ) :  -0.1922 B( 12-C , 15-H ) :   1.0994 B( 12-C , 17-C ) :   0.6196
B( 13-C , 14-C ) :   0.6472 B( 13-C , 17-C ) :   0.8351 B( 13-C , 20-H ) :   1.0797
B( 13-C , 21-I ) :   0.2426 B( 14-C , 17-C ) :  -0.1938 B( 14-C , 18-H ) :   1.0607
B( 16-H , 17-C ) :   1.1306 B( 16-H , 22-I ) :  -0.1823 B( 17-C , 22-I ) :   0.2094
B( 20-H , 21-I ) :  -0.2002

Dispersion correction           -0.055540577
FINAL SINGLE POINT ENERGY     -1050.902313246899

DIPOLE MOMENT
-------------
                                X             Y             Z
Electronic contribution:     -0.09874    -124.28169      -0.05521
Nuclear contribution   :      0.10150     127.02090       0.05751
                        -----------------------------------------
Total Dipole Moment    :      0.00277       2.73921       0.00230
                        -----------------------------------------
Magnitude (a.u.)       :      2.73922
Magnitude (Debye)      :      6.96253

Rotational constants in cm-1:     0.012573     0.011263     0.008836
Rotational constants in MHz :   376.926737   337.652277   264.898337

                             ****ORCA TERMINATED NORMALLY****
TOTAL RUN TIME: 0 days 0 hours 0 minutes 41 seconds 230 msec
