                         Program Version 4.2.0 -  RELEASE  -
|  1> #
|  2> # MOR34_pr35 TPSS-D3BJ/Def2-TZVPPD
|  3> #
|  4> ! tpss d3bj def2-tzvppd def2/j grid4 nofinalgrid
|  5>
|  6> *xyz 0 1
|  7> Ru       0.569145    0.005836    0.165179
|  8> Se      -1.577691    0.219302   -1.256403
|  9> P        2.150844   -0.339975    1.751510
| 10> P        1.960774    0.268717   -1.689611
| 11> P        0.209152    2.312844    0.427199
| 12> P        0.201777   -2.273734   -0.170115
| 13> C       -3.165297    0.017396   -0.190307
| 14> C       -4.394132    0.053132   -0.874133
| 15> C       -5.595730   -0.078160   -0.183035
| 16> C       -5.602894   -0.248979    1.204636
| 17> C       -4.386994   -0.285335    1.887322
| 18> C       -3.179536   -0.153593    1.200055
| 19> C        2.835775    1.024261    2.797241
| 20> C        3.776990   -1.134294    1.350685
| 21> C        1.582544   -1.410719    3.147602
| 22> C        1.189258    0.640725   -3.324662
| 23> C        3.233820    1.610023   -1.608962
| 24> C        3.088037   -1.102636   -2.218553
| 25> C       -1.285561    2.723129    1.411363
| 26> C        1.411100    3.483245    1.220886
| 27> C       -0.106458    3.317190   -1.091179
| 28> C       -1.203048   -2.960414    0.792609
| 29> C        1.495583   -3.557062    0.180127
| 30> C       -0.249251   -2.863510   -1.860160
| 31> H       -0.380046   -0.139952    1.501494
| 32> H       -4.399385    0.184833   -1.953205
| 33> H       -6.533440   -0.047821   -0.732848
| 34> H       -6.541373   -0.352173    1.741881
| 35> H       -4.372710   -0.417664    2.966984
| 36> H       -2.231572   -0.183831    1.730627
| 37> H        2.021868    1.525326    3.326216
| 38> H        3.360848    1.757391    2.181578
| 39> H        3.533951    0.611895    3.534364
| 40> H        4.357450   -0.458164    0.715432
| 41> H        3.629968   -2.070962    0.811827
| 42> H        4.349762   -1.333108    2.263576
| 43> H        0.778593   -0.879257    3.663997
| 44> H        2.395525   -1.623101    3.851423
| 45> H        1.170731   -2.350778    2.777081
| 46> H        1.942377    0.770617   -4.110078
| 47> H        0.580686    1.544719   -3.247034
| 48> H        0.519142   -0.181425   -3.592607
| 49> H        3.848415    1.640003   -2.515852
| 50> H        3.881269    1.436754   -0.744032
| 51> H        2.749674    2.580347   -1.477575
| 52> H        3.680607   -0.803573   -3.090502
| 53> H        2.506614   -1.989838   -2.479223
| 54> H        3.765021   -1.364235   -1.402566
| 55> H       -1.422862    3.807855    1.484184
| 56> H       -1.180491    2.295670    2.412101
| 57> H       -2.158099    2.270920    0.935224
| 58> H        1.060677    4.511234    1.077988
| 59> H        2.402787    3.383240    0.772277
| 60> H        1.491749    3.290644    2.291344
| 61> H       -0.430215    4.323980   -0.805953
| 62> H       -0.883917    2.832935   -1.685612
| 63> H        0.806667    3.401312   -1.686904
| 64> H       -1.338643   -4.028887    0.591012
| 65> H       -2.108817   -2.414477    0.518490
| 66> H       -1.024200   -2.804556    1.859563
| 67> H        1.083825   -4.556345    0.001539
| 68> H        1.848365   -3.505467    1.212021
| 69> H        2.350340   -3.408454   -0.485526
| 70> H       -0.446095   -3.940916   -1.837012
| 71> H        0.566038   -2.668527   -2.561627
| 72> H       -1.135395   -2.323383   -2.198214
| 73> *
| 74>
| 75> %maxcore 5000
| 76>
| 77> %pal
| 78> nprocs = 24
| 79> end
| 80>
| 81>
| 82>                          ****END OF INPUT****

CARTESIAN COORDINATES (ANGSTROEM)
---------------------------------
  Ru     0.569145    0.005836    0.165179
  Se    -1.577691    0.219302   -1.256403
  P      2.150844   -0.339975    1.751510
  P      1.960774    0.268717   -1.689611
  P      0.209152    2.312844    0.427199
  P      0.201777   -2.273734   -0.170115
  C     -3.165297    0.017396   -0.190307
  C     -4.394132    0.053132   -0.874133
  C     -5.595730   -0.078160   -0.183035
  C     -5.602894   -0.248979    1.204636
  C     -4.386994   -0.285335    1.887322
  C     -3.179536   -0.153593    1.200055
  C      2.835775    1.024261    2.797241
  C      3.776990   -1.134294    1.350685
  C      1.582544   -1.410719    3.147602
  C      1.189258    0.640725   -3.324662
  C      3.233820    1.610023   -1.608962
  C      3.088037   -1.102636   -2.218553
  C     -1.285561    2.723129    1.411363
  C      1.411100    3.483245    1.220886
  C     -0.106458    3.317190   -1.091179
  C     -1.203048   -2.960414    0.792609
  C      1.495583   -3.557062    0.180127
  C     -0.249251   -2.863510   -1.860160
  H     -0.380046   -0.139952    1.501494
  H     -4.399385    0.184833   -1.953205
  H     -6.533440   -0.047821   -0.732848
  H     -6.541373   -0.352173    1.741881
  H     -4.372710   -0.417664    2.966984
  H     -2.231572   -0.183831    1.730627
  H      2.021868    1.525326    3.326216
  H      3.360848    1.757391    2.181578
  H      3.533951    0.611895    3.534364
  H      4.357450   -0.458164    0.715432
  H      3.629968   -2.070962    0.811827
  H      4.349762   -1.333108    2.263576
  H      0.778593   -0.879257    3.663997
  H      2.395525   -1.623101    3.851423
  H      1.170731   -2.350778    2.777081
  H      1.942377    0.770617   -4.110078
  H      0.580686    1.544719   -3.247034
  H      0.519142   -0.181425   -3.592607
  H      3.848415    1.640003   -2.515852
  H      3.881269    1.436754   -0.744032
  H      2.749674    2.580347   -1.477575
  H      3.680607   -0.803573   -3.090502
  H      2.506614   -1.989838   -2.479223
  H      3.765021   -1.364235   -1.402566
  H     -1.422862    3.807855    1.484184
  H     -1.180491    2.295670    2.412101
  H     -2.158099    2.270920    0.935224
  H      1.060677    4.511234    1.077988
  H      2.402787    3.383240    0.772277
  H      1.491749    3.290644    2.291344
  H     -0.430215    4.323980   -0.805953
  H     -0.883917    2.832935   -1.685612
  H      0.806667    3.401312   -1.686904
  H     -1.338643   -4.028887    0.591012
  H     -2.108817   -2.414477    0.518490
  H     -1.024200   -2.804556    1.859563
  H      1.083825   -4.556345    0.001539
  H      1.848365   -3.505467    1.212021
  H      2.350340   -3.408454   -0.485526
  H     -0.446095   -3.940916   -1.837012
  H      0.566038   -2.668527   -2.561627
  H     -1.135395   -2.323383   -2.198214

 Total Charge           Charge          ....    0
 Multiplicity           Mult            ....    1
 Number of Electrons    NEL             ....  260
 Basis Dimension        Dim             .... 1685

ORBITAL ENERGIES
----------------

  NO   OCC          E(Eh)            E(eV)
   0   2.0000    -452.738336    -12319.6364
   1   2.0000     -76.603509     -2084.4875
   2   2.0000     -76.597622     -2084.3273
   3   2.0000     -76.596964     -2084.3094
   4   2.0000     -76.595602     -2084.2723
   5   2.0000     -57.479874     -1564.1069
   6   2.0000     -51.550198     -1402.7522
   7   2.0000     -51.549498     -1402.7331
   8   2.0000     -51.548698     -1402.7114
   9   2.0000      -9.988450      -271.7995
  10   2.0000      -9.988208      -271.7930
  11   2.0000      -9.986860      -271.7563
  12   2.0000      -9.986622      -271.7498
  13   2.0000      -9.986095      -271.7355
  14   2.0000      -9.985972      -271.7321
  15   2.0000      -9.983787      -271.6727
  16   2.0000      -9.982895      -271.6484
  17   2.0000      -9.979070      -271.5443
  18   2.0000      -9.974829      -271.4289
  19   2.0000      -9.974681      -271.4249
  20   2.0000      -9.973075      -271.3812
  21   2.0000      -9.971019      -271.3252
  22   2.0000      -9.967360      -271.2256
  23   2.0000      -9.967137      -271.2196
  24   2.0000      -9.964071      -271.1362
  25   2.0000      -9.963049      -271.1084
  26   2.0000      -9.959075      -271.0002
  27   2.0000      -7.543218      -205.2614
  28   2.0000      -6.374606      -173.4619
  29   2.0000      -6.369519      -173.3234
  30   2.0000      -6.368961      -173.3082
  31   2.0000      -6.367576      -173.2705
  32   2.0000      -5.503480      -149.7573
  33   2.0000      -5.498657      -149.6261
  34   2.0000      -5.495303      -149.5348
  35   2.0000      -4.552500      -123.8798
  36   2.0000      -4.552282      -123.8739
  37   2.0000      -4.549437      -123.7965
  38   2.0000      -4.547549      -123.7451
  39   2.0000      -4.546934      -123.7284
  40   2.0000      -4.546774      -123.7240
  41   2.0000      -4.546574      -123.7186
  42   2.0000      -4.545616      -123.6925
  43   2.0000      -4.544988      -123.6754
  44   2.0000      -4.544290      -123.6564
  45   2.0000      -4.543669      -123.6395
  46   2.0000      -4.542314      -123.6026
  47   2.0000      -2.862601       -77.8953
  48   2.0000      -1.908182       -51.9243
  49   2.0000      -1.907355       -51.9018
  50   2.0000      -1.904632       -51.8277
  51   2.0000      -1.900782       -51.7229
  52   2.0000      -1.900500       -51.7152
  53   2.0000      -1.737455       -47.2786
  54   2.0000      -1.735790       -47.2332
  55   2.0000      -1.731976       -47.1295
  56   2.0000      -0.769380       -20.9359
  57   2.0000      -0.719511       -19.5789
  58   2.0000      -0.712602       -19.3909
  59   2.0000      -0.708623       -19.2826
  60   2.0000      -0.706558       -19.2264
  61   2.0000      -0.674239       -18.3470
  62   2.0000      -0.665092       -18.0981
  63   2.0000      -0.648966       -17.6593
  64   2.0000      -0.645508       -17.5652
  65   2.0000      -0.645329       -17.5603
  66   2.0000      -0.641174       -17.4472
  67   2.0000      -0.638823       -17.3833
  68   2.0000      -0.634319       -17.2607
  69   2.0000      -0.632815       -17.2198
  70   2.0000      -0.631955       -17.1964
  71   2.0000      -0.577216       -15.7069
  72   2.0000      -0.530811       -14.4441
  73   2.0000      -0.510737       -13.8978
  74   2.0000      -0.503263       -13.6945
  75   2.0000      -0.495341       -13.4789
  76   2.0000      -0.490060       -13.3352
  77   2.0000      -0.487514       -13.2659
  78   2.0000      -0.441559       -12.0154
  79   2.0000      -0.424387       -11.5482
  80   2.0000      -0.414070       -11.2674
  81   2.0000      -0.411666       -11.2020
  82   2.0000      -0.406643       -11.0653
  83   2.0000      -0.404633       -11.0106
  84   2.0000      -0.398379       -10.8405
  85   2.0000      -0.394807       -10.7432
  86   2.0000      -0.392187       -10.6720
  87   2.0000      -0.389079       -10.5874
  88   2.0000      -0.386618       -10.5204
  89   2.0000      -0.384060       -10.4508
  90   2.0000      -0.382580       -10.4105
  91   2.0000      -0.380324       -10.3492
  92   2.0000      -0.377245       -10.2654
  93   2.0000      -0.369986       -10.0678
  94   2.0000      -0.367671       -10.0048
  95   2.0000      -0.366173        -9.9641
  96   2.0000      -0.363835        -9.9005
  97   2.0000      -0.360314        -9.8047
  98   2.0000      -0.357657        -9.7323
  99   2.0000      -0.356871        -9.7110
 100   2.0000      -0.355190        -9.6652
 101   2.0000      -0.353222        -9.6117
 102   2.0000      -0.351869        -9.5749
 103   2.0000      -0.351017        -9.5517
 104   2.0000      -0.345186        -9.3930
 105   2.0000      -0.343854        -9.3567
 106   2.0000      -0.329047        -8.9538
 107   2.0000      -0.313672        -8.5355
 108   2.0000      -0.309319        -8.4170
 109   2.0000      -0.306814        -8.3488
 110   2.0000      -0.306030        -8.3275
 111   2.0000      -0.301076        -8.1927
 112   2.0000      -0.298330        -8.1180
 113   2.0000      -0.294307        -8.0085
 114   2.0000      -0.291596        -7.9347
 115   2.0000      -0.290307        -7.8996
 116   2.0000      -0.287397        -7.8205
 117   2.0000      -0.286515        -7.7965
 118   2.0000      -0.281520        -7.6606
 119   2.0000      -0.275426        -7.4947
 120   2.0000      -0.254476        -6.9246
 121   2.0000      -0.237329        -6.4580
 122   2.0000      -0.219647        -5.9769
 123   2.0000      -0.207835        -5.6555
 124   2.0000      -0.206183        -5.6105
 125   2.0000      -0.199589        -5.4311
 126   2.0000      -0.186894        -5.0857
 127   2.0000      -0.177220        -4.8224
 128   2.0000      -0.165173        -4.4946
 129   2.0000      -0.136615        -3.7175
 130   0.0000      -0.020590        -0.5603
 131   0.0000      -0.019727        -0.5368
 132   0.0000      -0.014868        -0.4046
 133   0.0000      -0.010914        -0.2970
 134   0.0000      -0.002753        -0.0749

MULLIKEN ATOMIC CHARGES
-----------------------
   0 Ru:   -1.524296
   1 Se:   -0.283290
   2 P :    1.303503
   3 P :    1.120179
   4 P :    0.998574
   5 P :    0.887391
   6 C :    0.431460
   7 C :   -0.549564
   8 C :   -0.226728
   9 C :   -0.190354
  10 C :   -0.658036
  11 C :    0.556978
  12 C :   -0.898456
  13 C :   -0.745983
  14 C :   -0.707871
  15 C :   -0.827319
  16 C :   -0.654412
  17 C :   -0.654799
  18 C :   -0.470691
  19 C :   -0.708009
  20 C :   -0.660459
  21 C :   -0.561401
  22 C :   -0.745753
  23 C :   -0.455451
  24 H :   -0.003746
  25 H :    0.074299
  26 H :    0.069153
  27 H :    0.078972
  28 H :    0.054666
  29 H :    0.086352
  30 H :    0.129393
  31 H :    0.185634
  32 H :    0.215734
  33 H :    0.188859
  34 H :    0.170690
  35 H :    0.209521
  36 H :    0.147102
  37 H :    0.177450
  38 H :    0.085028
  39 H :    0.202863
  40 H :    0.150428
  41 H :    0.155683
  42 H :    0.173413
  43 H :    0.170773
  44 H :    0.126461
  45 H :    0.184583
  46 H :    0.116707
  47 H :    0.175265
  48 H :    0.188570
  49 H :    0.071935
  50 H :    0.123425
  51 H :    0.192754
  52 H :    0.141758
  53 H :    0.173675
  54 H :    0.202821
  55 H :    0.184740
  56 H :    0.142260
  57 H :    0.191710
  58 H :    0.159186
  59 H :    0.081268
  60 H :    0.191381
  61 H :    0.171636
  62 H :    0.197447
  63 H :    0.202158
  64 H :    0.119749
  65 H :    0.163031
Sum of atomic charges:    0.0000000

LOEWDIN ATOMIC CHARGES
----------------------
   0 Ru:   -0.046146
   1 Se:    0.686212
   2 P :    0.755104
   3 P :    0.763584
   4 P :    0.765556
   5 P :    0.760245
   6 C :   -0.582701
   7 C :   -0.063621
   8 C :   -0.002564
   9 C :   -0.006712
  10 C :    0.004924
  11 C :   -0.091473
  12 C :   -0.025777
  13 C :   -0.017542
  14 C :   -0.025518
  15 C :   -0.031742
  16 C :   -0.018050
  17 C :   -0.014101
  18 C :   -0.016397
  19 C :   -0.021500
  20 C :   -0.046777
  21 C :   -0.003588
  22 C :   -0.017520
  23 C :   -0.037970
  24 H :   -0.113361
  25 H :   -0.017792
  26 H :   -0.006940
  27 H :   -0.012171
  28 H :   -0.005391
  29 H :   -0.066815
  30 H :   -0.062996
  31 H :   -0.066807
  32 H :   -0.051834
  33 H :   -0.068578
  34 H :   -0.087842
  35 H :   -0.051550
  36 H :   -0.054730
  37 H :   -0.051770
  38 H :   -0.091470
  39 H :   -0.051351
  40 H :   -0.076760
  41 H :   -0.067890
  42 H :   -0.051630
  43 H :   -0.067900
  44 H :   -0.086795
  45 H :   -0.050834
  46 H :   -0.083094
  47 H :   -0.077269
  48 H :   -0.049532
  49 H :   -0.052254
  50 H :   -0.077337
  51 H :   -0.052663
  52 H :   -0.070441
  53 H :   -0.077071
  54 H :   -0.052357
  55 H :   -0.113938
  56 H :   -0.076789
  57 H :   -0.048843
  58 H :   -0.072439
  59 H :   -0.058483
  60 H :   -0.051300
  61 H :   -0.080483
  62 H :   -0.070626
  63 H :   -0.050918
  64 H :   -0.079472
  65 H :   -0.107410

  Mayer bond orders larger than 0.100000
B(  0-Ru,  1-Se) :   0.6750 B(  0-Ru,  2-P ) :   0.5657 B(  0-Ru,  3-P ) :   0.6117
B(  0-Ru,  4-P ) :   0.6553 B(  0-Ru,  5-P ) :   0.7356 B(  0-Ru, 12-C ) :   0.1392
B(  0-Ru, 13-C ) :   0.1256 B(  0-Ru, 14-C ) :   0.2070 B(  0-Ru, 15-C ) :   0.1134
B(  0-Ru, 16-C ) :   0.1607 B(  0-Ru, 17-C ) :   0.1122 B(  0-Ru, 18-C ) :   0.1366
B(  0-Ru, 21-C ) :   0.1283 B(  0-Ru, 24-H ) :   0.7980 B(  0-Ru, 29-H ) :   0.3938
B(  1-Se,  3-P ) :  -0.2561 B(  1-Se,  4-P ) :   0.2347 B(  1-Se,  5-P ) :   0.2024
B(  1-Se,  6-C ) :   0.8371 B(  1-Se, 11-C ) :   0.1761 B(  1-Se, 15-C ) :   0.1620
B(  1-Se, 23-C ) :  -0.1144 B(  1-Se, 24-H ) :  -0.1385 B(  1-Se, 29-H ) :   0.2684
B(  2-P ,  3-P ) :   0.4292 B(  2-P ,  5-P ) :   0.2523 B(  2-P , 12-C ) :   0.4488
B(  2-P , 13-C ) :   0.6453 B(  2-P , 14-C ) :   0.7400 B(  2-P , 24-H ) :  -0.1353
B(  3-P ,  4-P ) :   0.1263 B(  3-P ,  5-P ) :   0.1113 B(  3-P , 15-C ) :   0.6277
B(  3-P , 16-C ) :   0.6674 B(  3-P , 17-C ) :   0.5410 B(  3-P , 24-H ) :   0.1540
B(  4-P ,  5-P ) :   0.2004 B(  4-P , 18-C ) :   0.7268 B(  4-P , 19-C ) :   0.6084
B(  4-P , 20-C ) :   0.7384 B(  4-P , 50-H ) :   0.1325 B(  5-P , 21-C ) :   0.7886
B(  5-P , 22-C ) :   0.5732 B(  5-P , 23-C ) :   0.6747 B(  5-P , 58-H ) :   0.1018
B(  5-P , 65-H ) :   0.1173 B(  6-C ,  7-C ) :   0.9472 B(  6-C , 11-C ) :   1.1751
B(  6-C , 29-H ) :  -0.1298 B(  7-C ,  8-C ) :   1.2764 B(  7-C , 10-C ) :   0.1464
B(  7-C , 11-C ) :  -0.1173 B(  7-C , 25-H ) :   1.0097 B(  8-C ,  9-C ) :   1.2115
B(  8-C , 26-H ) :   1.0889 B(  9-C , 10-C ) :   1.2332 B(  9-C , 11-C ) :  -0.1224
B(  9-C , 27-H ) :   1.1003 B( 10-C , 11-C ) :   0.9111 B( 10-C , 28-H ) :   1.1516
B( 10-C , 29-H ) :  -0.1424 B( 11-C , 29-H ) :   0.7753 B( 12-C , 13-C ) :   0.1577
B( 12-C , 14-C ) :   0.2391 B( 12-C , 30-H ) :   1.0474 B( 12-C , 31-H ) :   0.9671
B( 12-C , 32-H ) :   0.9032 B( 13-C , 14-C ) :   0.1176 B( 13-C , 33-H ) :   0.9593
B( 13-C , 34-H ) :   1.0343 B( 13-C , 35-H ) :   0.9130 B( 14-C , 36-H ) :   0.9871
B( 14-C , 37-H ) :   0.9277 B( 14-C , 38-H ) :   1.0081 B( 15-C , 16-C ) :   0.1581
B( 15-C , 17-C ) :   0.1998 B( 15-C , 39-H ) :   0.8921 B( 15-C , 40-H ) :   1.0130
B( 15-C , 41-H ) :   0.9823 B( 16-C , 17-C ) :   0.2203 B( 16-C , 42-H ) :   0.9316
B( 16-C , 43-H ) :   0.9796 B( 16-C , 44-H ) :   0.9908 B( 17-C , 45-H ) :   0.9087
B( 17-C , 46-H ) :   0.9920 B( 17-C , 47-H ) :   1.0055 B( 18-C , 19-C ) :   0.2018
B( 18-C , 20-C ) :   0.1339 B( 18-C , 48-H ) :   0.8861 B( 18-C , 49-H ) :   0.9865
B( 18-C , 50-H ) :   1.0359 B( 19-C , 20-C ) :   0.1983 B( 19-C , 51-H ) :   0.9341
B( 19-C , 52-H ) :   1.0568 B( 19-C , 53-H ) :   0.9516 B( 20-C , 54-H ) :   0.9299
B( 20-C , 55-H ) :   0.9605 B( 20-C , 56-H ) :   1.0153 B( 21-C , 22-C ) :   0.1630
B( 21-C , 23-C ) :   0.1346 B( 21-C , 57-H ) :   0.8620 B( 21-C , 58-H ) :   1.0622
B( 21-C , 59-H ) :   0.9958 B( 22-C , 23-C ) :   0.2044 B( 22-C , 60-H ) :   0.9353
B( 22-C , 61-H ) :   0.9996 B( 22-C , 62-H ) :   0.9886 B( 23-C , 63-H ) :   0.9239
B( 23-C , 64-H ) :   1.0087 B( 23-C , 65-H ) :   0.9059 B( 24-H , 29-H ) :   0.1722
B( 57-H , 58-H ) :   0.1008

Dispersion correction           -0.156153890
FINAL SINGLE POINT ENERGY     -4573.928740073401

DIPOLE MOMENT
-------------
                                X             Y             Z
Electronic contribution:      6.65663       3.78336      -7.31900
Nuclear contribution   :     -4.37445      -3.89216       7.69405
                        -----------------------------------------
Total Dipole Moment    :      2.28218      -0.10879       0.37505
                        -----------------------------------------
Magnitude (a.u.)       :      2.31535
Magnitude (Debye)      :      5.88514

Rotational constants in cm-1:     0.006518     0.004113     0.003881
Rotational constants in MHz :   195.407297   123.317842   116.359449

                             ****ORCA TERMINATED NORMALLY****
TOTAL RUN TIME: 0 days 0 hours 2 minutes 2 seconds 781 msec
