                         Program Version 4.2.0 -  RELEASE  -
|  1> #
|  2> # MOR37_pr38 TPSS-D3BJ/Def2-TZVPPD
|  3> #
|  4> ! tpss d3bj def2-tzvppd def2/j grid4 nofinalgrid
|  5>
|  6> *xyz 0 1
|  7> Mo       0.000368   -0.000951   -0.664236
|  8> C        1.186218    1.095679   -1.824431
|  9> C       -1.543342    0.475450   -1.823831
| 10> C        0.358600   -1.578355   -1.821075
| 11> O        0.584740   -2.492846   -2.512436
| 12> O        1.864319    1.747384   -2.517871
| 13> O       -2.447606    0.735637   -2.516687
| 14> P        1.980785   -0.729448    0.688588
| 15> P       -1.623545   -1.348294    0.688464
| 16> P       -0.357708    2.080403    0.685812
| 17> C       -1.633250    3.223236    0.009653
| 18> H       -1.705660    4.145387    0.596929
| 19> H       -2.603028    2.718106    0.000627
| 20> H       -1.373511    3.465952   -1.024212
| 21> C       -0.858884    2.043709    2.465539
| 22> H       -1.825180    1.541749    2.565977
| 23> H       -0.943418    3.056285    2.875390
| 24> H       -0.120247    1.484663    3.045786
| 25> C        1.092608    3.215640    0.782943
| 26> H        0.848407    4.138527    1.320517
| 27> H        1.418994    3.459201   -0.231490
| 28> H        1.920240    2.713456    1.291867
| 29> C       -1.984130   -3.020964    0.008508
| 30> H       -2.747676   -3.543086    0.595776
| 31> H       -1.064326   -3.612180   -0.003877
| 32> H       -2.325682   -2.913010   -1.024422
| 33> C       -1.336917   -1.769970    2.466070
| 34> H       -2.171293   -2.349509    2.876428
| 35> H       -1.219304   -0.852646    3.048800
| 36> H       -0.419591   -2.357379    2.562237
| 37> C       -3.329045   -0.653966    0.792955
| 38> H       -4.006858   -1.325859    1.330979
| 39> H       -3.705797   -0.489375   -0.219919
| 40> H       -3.303097    0.312486    1.304224
| 41> C        3.608641   -0.198569    0.011444
| 42> H        4.443241   -0.596886    0.599054
| 43> H        3.657034    0.893802    0.001026
| 44> H        3.688452   -0.546249   -1.021993
| 45> C        2.199807   -0.272940    2.467201
| 46> H        3.119209   -0.704894    2.877753
| 47> H        1.346620   -0.631939    3.048604
| 48> H        2.248134    0.815142    2.564989
| 49> C        2.238042   -2.552971    0.789569
| 50> H        3.157648   -2.802349    1.330381
| 51> H        2.288935   -2.958854   -0.224143
| 52> H        1.387609   -3.017788    1.296348
| 53> *
| 54>
| 55> %maxcore 5000
| 56>
| 57> %pal
| 58> nprocs = 24
| 59> end
| 60>
| 61>
| 62>                          ****END OF INPUT****

CARTESIAN COORDINATES (ANGSTROEM)
---------------------------------
  Mo     0.000368   -0.000951   -0.664236
  C      1.186218    1.095679   -1.824431
  C     -1.543342    0.475450   -1.823831
  C      0.358600   -1.578355   -1.821075
  O      0.584740   -2.492846   -2.512436
  O      1.864319    1.747384   -2.517871
  O     -2.447606    0.735637   -2.516687
  P      1.980785   -0.729448    0.688588
  P     -1.623545   -1.348294    0.688464
  P     -0.357708    2.080403    0.685812
  C     -1.633250    3.223236    0.009653
  H     -1.705660    4.145387    0.596929
  H     -2.603028    2.718106    0.000627
  H     -1.373511    3.465952   -1.024212
  C     -0.858884    2.043709    2.465539
  H     -1.825180    1.541749    2.565977
  H     -0.943418    3.056285    2.875390
  H     -0.120247    1.484663    3.045786
  C      1.092608    3.215640    0.782943
  H      0.848407    4.138527    1.320517
  H      1.418994    3.459201   -0.231490
  H      1.920240    2.713456    1.291867
  C     -1.984130   -3.020964    0.008508
  H     -2.747676   -3.543086    0.595776
  H     -1.064326   -3.612180   -0.003877
  H     -2.325682   -2.913010   -1.024422
  C     -1.336917   -1.769970    2.466070
  H     -2.171293   -2.349509    2.876428
  H     -1.219304   -0.852646    3.048800
  H     -0.419591   -2.357379    2.562237
  C     -3.329045   -0.653966    0.792955
  H     -4.006858   -1.325859    1.330979
  H     -3.705797   -0.489375   -0.219919
  H     -3.303097    0.312486    1.304224
  C      3.608641   -0.198569    0.011444
  H      4.443241   -0.596886    0.599054
  H      3.657034    0.893802    0.001026
  H      3.688452   -0.546249   -1.021993
  C      2.199807   -0.272940    2.467201
  H      3.119209   -0.704894    2.877753
  H      1.346620   -0.631939    3.048604
  H      2.248134    0.815142    2.564989
  C      2.238042   -2.552971    0.789569
  H      3.157648   -2.802349    1.330381
  H      2.288935   -2.958854   -0.224143
  H      1.387609   -3.017788    1.296348

 Total Charge           Charge          ....    0
 Multiplicity           Mult            ....    1
 Number of Electrons    NEL             ....  182
 Basis Dimension        Dim             .... 1223

ORBITAL ENERGIES
----------------

  NO   OCC          E(Eh)            E(eV)
   0   2.0000     -76.603907     -2084.4983
   1   2.0000     -76.603894     -2084.4979
   2   2.0000     -76.603870     -2084.4973
   3   2.0000     -18.904066      -514.4058
   4   2.0000     -18.904062      -514.4057
   5   2.0000     -18.904047      -514.4053
   6   2.0000     -10.041338      -273.2387
   7   2.0000     -10.041329      -273.2385
   8   2.0000     -10.041320      -273.2382
   9   2.0000      -9.998931      -272.0847
  10   2.0000      -9.998929      -272.0847
  11   2.0000      -9.998924      -272.0846
  12   2.0000      -9.993260      -271.9304
  13   2.0000      -9.993242      -271.9299
  14   2.0000      -9.993203      -271.9289
  15   2.0000      -9.990229      -271.8479
  16   2.0000      -9.990192      -271.8470
  17   2.0000      -9.990153      -271.8459
  18   2.0000      -6.377198      -173.5324
  19   2.0000      -6.377186      -173.5321
  20   2.0000      -6.377173      -173.5317
  21   2.0000      -4.554915      -123.9455
  22   2.0000      -4.554904      -123.9452
  23   2.0000      -4.554880      -123.9446
  24   2.0000      -4.554699      -123.9397
  25   2.0000      -4.554679      -123.9391
  26   2.0000      -4.554666      -123.9388
  27   2.0000      -4.551764      -123.8598
  28   2.0000      -4.551758      -123.8596
  29   2.0000      -4.551751      -123.8594
  30   2.0000      -2.404587       -65.4321
  31   2.0000      -1.436783       -39.0968
  32   2.0000      -1.436777       -39.0967
  33   2.0000      -1.436379       -39.0859
  34   2.0000      -1.000781       -27.2326
  35   2.0000      -1.000241       -27.2179
  36   2.0000      -1.000229       -27.2176
  37   2.0000      -0.724675       -19.7194
  38   2.0000      -0.719857       -19.5883
  39   2.0000      -0.719854       -19.5882
  40   2.0000      -0.656460       -17.8632
  41   2.0000      -0.653820       -17.7913
  42   2.0000      -0.653771       -17.7900
  43   2.0000      -0.649284       -17.6679
  44   2.0000      -0.649242       -17.6668
  45   2.0000      -0.648264       -17.6402
  46   2.0000      -0.513068       -13.9613
  47   2.0000      -0.500930       -13.6310
  48   2.0000      -0.500926       -13.6309
  49   2.0000      -0.476601       -12.9690
  50   2.0000      -0.466352       -12.6901
  51   2.0000      -0.466340       -12.6898
  52   2.0000      -0.424971       -11.5641
  53   2.0000      -0.417016       -11.3476
  54   2.0000      -0.416952       -11.3458
  55   2.0000      -0.405814       -11.0427
  56   2.0000      -0.405775       -11.0417
  57   2.0000      -0.404404       -11.0044
  58   2.0000      -0.399102       -10.8601
  59   2.0000      -0.396314       -10.7843
  60   2.0000      -0.396302       -10.7839
  61   2.0000      -0.380338       -10.3495
  62   2.0000      -0.379730       -10.3330
  63   2.0000      -0.379666       -10.3312
  64   2.0000      -0.376154       -10.2357
  65   2.0000      -0.376083       -10.2337
  66   2.0000      -0.374071       -10.1790
  67   2.0000      -0.371204       -10.1010
  68   2.0000      -0.363774        -9.8988
  69   2.0000      -0.362394        -9.8612
  70   2.0000      -0.362381        -9.8609
  71   2.0000      -0.360314        -9.8046
  72   2.0000      -0.360284        -9.8038
  73   2.0000      -0.354167        -9.6374
  74   2.0000      -0.351700        -9.5702
  75   2.0000      -0.351678        -9.5696
  76   2.0000      -0.349793        -9.5184
  77   2.0000      -0.344247        -9.3674
  78   2.0000      -0.344242        -9.3673
  79   2.0000      -0.313999        -8.5444
  80   2.0000      -0.312368        -8.5000
  81   2.0000      -0.312341        -8.4992
  82   2.0000      -0.305950        -8.3253
  83   2.0000      -0.305940        -8.3251
  84   2.0000      -0.304617        -8.2891
  85   2.0000      -0.252227        -6.8635
  86   2.0000      -0.243374        -6.6225
  87   2.0000      -0.243345        -6.6218
  88   2.0000      -0.165277        -4.4974
  89   2.0000      -0.165271        -4.4973
  90   2.0000      -0.163672        -4.4537
  91   0.0000      -0.029455        -0.8015
  92   0.0000      -0.029454        -0.8015
  93   0.0000      -0.024511        -0.6670
  94   0.0000      -0.019487        -0.5303
  95   0.0000      -0.006523        -0.1775

MULLIKEN ATOMIC CHARGES
-----------------------
   0 Mo:   -1.974345
   1 C :    0.610449
   2 C :    0.619878
   3 C :    0.605620
   4 O :   -0.499683
   5 O :   -0.499839
   6 O :   -0.500475
   7 P :    1.169293
   8 P :    1.146107
   9 P :    1.132313
  10 C :   -0.665305
  11 H :    0.167585
  12 H :    0.127167
  13 H :    0.108077
  14 C :   -0.635843
  15 H :    0.141578
  16 H :    0.176432
  17 H :    0.132874
  18 C :   -0.530313
  19 H :    0.161892
  20 H :    0.133230
  21 H :    0.090495
  22 C :   -0.662310
  23 H :    0.166038
  24 H :    0.126449
  25 H :    0.109954
  26 C :   -0.645253
  27 H :    0.172028
  28 H :    0.136279
  29 H :    0.140657
  30 C :   -0.533047
  31 H :    0.159180
  32 H :    0.135173
  33 H :    0.087528
  34 C :   -0.665729
  35 H :    0.165266
  36 H :    0.126872
  37 H :    0.111126
  38 C :   -0.646535
  39 H :    0.171131
  40 H :    0.139649
  41 H :    0.140673
  42 C :   -0.531652
  43 H :    0.157187
  44 H :    0.132057
  45 H :    0.090093
Sum of atomic charges:   -0.0000000

LOEWDIN ATOMIC CHARGES
----------------------
   0 Mo:    0.144739
   1 C :   -0.328133
   2 C :   -0.328132
   3 C :   -0.328157
   4 O :    0.038950
   5 O :    0.038974
   6 O :    0.038924
   7 P :    0.836292
   8 P :    0.836034
   9 P :    0.836021
  10 C :   -0.017070
  11 H :   -0.052210
  12 H :   -0.058924
  13 H :   -0.049034
  14 C :   -0.019584
  15 H :   -0.075943
  16 H :   -0.050961
  17 H :   -0.074790
  18 C :   -0.013510
  19 H :   -0.050983
  20 H :   -0.058814
  21 H :   -0.073280
  22 C :   -0.017179
  23 H :   -0.052258
  24 H :   -0.058774
  25 H :   -0.049027
  26 C :   -0.019726
  27 H :   -0.051026
  28 H :   -0.074538
  29 H :   -0.075822
  30 C :   -0.013429
  31 H :   -0.050950
  32 H :   -0.058772
  33 H :   -0.073683
  34 C :   -0.017173
  35 H :   -0.052231
  36 H :   -0.058873
  37 H :   -0.049065
  38 C :   -0.019768
  39 H :   -0.051037
  40 H :   -0.074633
  41 H :   -0.075784
  42 C :   -0.013503
  43 H :   -0.051012
  44 H :   -0.058749
  45 H :   -0.073397

  Mayer bond orders larger than 0.100000
B(  0-Mo,  1-C ) :   1.6360 B(  0-Mo,  2-C ) :   1.6391 B(  0-Mo,  3-C ) :   1.6409
B(  0-Mo,  7-P ) :   0.5443 B(  0-Mo,  8-P ) :   0.5512 B(  0-Mo,  9-P ) :   0.5542
B(  0-Mo, 10-C ) :   0.1033 B(  0-Mo, 22-C ) :   0.1009 B(  0-Mo, 34-C ) :   0.1012
B(  0-Mo, 42-C ) :   0.1012 B(  1-C ,  2-C ) :  -0.1313 B(  1-C ,  3-C ) :  -0.1312
B(  1-C ,  5-O ) :   1.5718 B(  2-C ,  3-C ) :  -0.1295 B(  2-C ,  6-O ) :   1.5723
B(  3-C ,  4-O ) :   1.5731 B(  7-P ,  8-P ) :   0.1438 B(  7-P ,  9-P ) :   0.1430
B(  7-P , 34-C ) :   0.7429 B(  7-P , 38-C ) :   0.8309 B(  7-P , 42-C ) :   0.7881
B(  8-P ,  9-P ) :   0.1495 B(  8-P , 22-C ) :   0.7409 B(  8-P , 26-C ) :   0.8376
B(  8-P , 30-C ) :   0.7906 B(  9-P , 10-C ) :   0.7436 B(  9-P , 14-C ) :   0.8381
B(  9-P , 18-C ) :   0.7971 B( 10-C , 11-H ) :   0.9373 B( 10-C , 12-H ) :   0.9833
B( 10-C , 13-H ) :   0.9858 B( 10-C , 14-C ) :   0.1430 B( 10-C , 18-C ) :   0.1637
B( 14-C , 15-H ) :   0.9848 B( 14-C , 16-H ) :   0.9366 B( 14-C , 17-H ) :   1.0159
B( 14-C , 18-C ) :   0.1579 B( 18-C , 19-H ) :   0.9529 B( 18-C , 20-H ) :   0.9393
B( 18-C , 21-H ) :   1.0011 B( 22-C , 23-H ) :   0.9400 B( 22-C , 24-H ) :   0.9818
B( 22-C , 25-H ) :   0.9844 B( 22-C , 26-C ) :   0.1442 B( 22-C , 30-C ) :   0.1639
B( 26-C , 27-H ) :   0.9403 B( 26-C , 28-H ) :   1.0146 B( 26-C , 29-H ) :   0.9846
B( 26-C , 30-C ) :   0.1594 B( 30-C , 31-H ) :   0.9562 B( 30-C , 32-H ) :   0.9390
B( 30-C , 33-H ) :   1.0037 B( 34-C , 35-H ) :   0.9412 B( 34-C , 36-H ) :   0.9813
B( 34-C , 37-H ) :   0.9820 B( 34-C , 38-C ) :   0.1435 B( 34-C , 42-C ) :   0.1634
B( 38-C , 39-H ) :   0.9425 B( 38-C , 40-H ) :   1.0121 B( 38-C , 41-H ) :   0.9844
B( 38-C , 42-C ) :   0.1598 B( 42-C , 43-H ) :   0.9573 B( 42-C , 44-H ) :   0.9385
B( 42-C , 45-H ) :   1.0026

Dispersion correction           -0.103873174
FINAL SINGLE POINT ENERGY     -1792.322693604923

DIPOLE MOMENT
-------------
                                X             Y             Z
Electronic contribution:      0.03118      -0.08875     -63.21465
Nuclear contribution   :     -0.03125       0.09337      66.31953
                        -----------------------------------------
Total Dipole Moment    :     -0.00007       0.00462       3.10488
                        -----------------------------------------
Magnitude (a.u.)       :      3.10489
Magnitude (Debye)      :      7.89200

Rotational constants in cm-1:     0.008677     0.008672     0.007610
Rotational constants in MHz :   260.126059   259.983430   228.154635

                             ****ORCA TERMINATED NORMALLY****
TOTAL RUN TIME: 0 days 0 hours 0 minutes 56 seconds 5 msec
