                         Program Version 4.2.0 -  RELEASE  -
|  1> #
|  2> # TMB08_C1 TPSS-D3BJ/Def2-TZVPPD
|  3> #
|  4> ! tpss d3bj def2-tzvppd def2/j grid4 nofinalgrid
|  5>
|  6> *xyz -1 1
|  7> O       -0.906881    0.014085    1.547895
|  8> Mo       0.376053    0.005978   -0.001071
|  9> O       -1.663172   -0.405524   -0.725982
| 10> S        1.900189   -1.271673    1.262125
| 11> C        2.414735   -2.638587    0.321741
| 12> C        1.961707   -2.798175   -0.938062
| 13> S        0.862636   -1.648766   -1.631530
| 14> S        1.558394    1.801029    0.984387
| 15> C        1.596911    3.127556   -0.137889
| 16> C        1.038164    3.004113   -1.358311
| 17> S        0.284978    1.511994   -1.829576
| 18> S       -2.828559   -0.609282    0.265517
| 19> C       -3.471491    1.031204    0.628759
| 20> H       -2.700467    1.513975    1.240208
| 21> H       -3.606824    1.576556   -0.316000
| 22> H       -4.419892    0.937929    1.179101
| 23> C       -4.093537   -1.069425   -0.932883
| 24> H       -3.796770   -2.046338   -1.337942
| 25> H       -5.068961   -1.152599   -0.429186
| 26> H       -4.123504   -0.329731   -1.745777
| 27> C       -0.609178    0.103975    2.901511
| 28> H       -0.060534    1.039756    3.130388
| 29> H       -1.547958    0.094647    3.495802
| 30> H        0.020434   -0.743420    3.237520
| 31> H        2.283338   -3.631534   -1.572173
| 32> H        3.135734   -3.322762    0.781228
| 33> H        1.069667    3.809818   -2.099793
| 34> H        2.115872    4.037362    0.182319
| 35> *
| 36>
| 37> %maxcore 5000
| 38>
| 39> %pal
| 40> nprocs = 24
| 41> end
| 42>
| 43>
| 44>                          ****END OF INPUT****

CARTESIAN COORDINATES (ANGSTROEM)
---------------------------------
  O     -0.906881    0.014085    1.547895
  Mo     0.376053    0.005978   -0.001071
  O     -1.663172   -0.405524   -0.725982
  S      1.900189   -1.271673    1.262125
  C      2.414735   -2.638587    0.321741
  C      1.961707   -2.798175   -0.938062
  S      0.862636   -1.648766   -1.631530
  S      1.558394    1.801029    0.984387
  C      1.596911    3.127556   -0.137889
  C      1.038164    3.004113   -1.358311
  S      0.284978    1.511994   -1.829576
  S     -2.828559   -0.609282    0.265517
  C     -3.471491    1.031204    0.628759
  H     -2.700467    1.513975    1.240208
  H     -3.606824    1.576556   -0.316000
  H     -4.419892    0.937929    1.179101
  C     -4.093537   -1.069425   -0.932883
  H     -3.796770   -2.046338   -1.337942
  H     -5.068961   -1.152599   -0.429186
  H     -4.123504   -0.329731   -1.745777
  C     -0.609178    0.103975    2.901511
  H     -0.060534    1.039756    3.130388
  H     -1.547958    0.094647    3.495802
  H      0.020434   -0.743420    3.237520
  H      2.283338   -3.631534   -1.572173
  H      3.135734   -3.322762    0.781228
  H      1.069667    3.809818   -2.099793
  H      2.115872    4.037362    0.182319

 Total Charge           Charge          ....   -1
 Multiplicity           Mult            ....    1
 Number of Electrons    NEL             ....  166
 Basis Dimension        Dim             ....  871

ORBITAL ENERGIES
----------------

  NO   OCC          E(Eh)            E(eV)
   0   2.0000     -88.354915     -2404.2595
   1   2.0000     -88.190911     -2399.7967
   2   2.0000     -88.189855     -2399.7680
   3   2.0000     -88.187211     -2399.6960
   4   2.0000     -88.186776     -2399.6842
   5   2.0000     -18.767409      -510.6872
   6   2.0000     -18.739110      -509.9171
   7   2.0000      -9.928929      -270.1799
   8   2.0000      -9.923145      -270.0225
   9   2.0000      -9.899618      -269.3823
  10   2.0000      -9.861207      -268.3371
  11   2.0000      -9.860792      -268.3258
  12   2.0000      -9.860175      -268.3090
  13   2.0000      -9.859954      -268.3030
  14   2.0000      -7.723638      -210.1709
  15   2.0000      -7.571653      -206.0352
  16   2.0000      -7.570557      -206.0053
  17   2.0000      -7.568076      -205.9378
  18   2.0000      -7.567597      -205.9248
  19   2.0000      -5.703328      -155.1955
  20   2.0000      -5.702730      -155.1792
  21   2.0000      -5.695709      -154.9881
  22   2.0000      -5.550935      -151.0486
  23   2.0000      -5.549917      -151.0209
  24   2.0000      -5.547424      -150.9531
  25   2.0000      -5.547095      -150.9441
  26   2.0000      -5.546970      -150.9407
  27   2.0000      -5.545739      -150.9072
  28   2.0000      -5.545092      -150.8896
  29   2.0000      -5.544183      -150.8649
  30   2.0000      -5.543117      -150.8359
  31   2.0000      -5.542605      -150.8220
  32   2.0000      -5.541817      -150.8005
  33   2.0000      -5.541353      -150.7879
  34   2.0000      -2.324889       -63.2635
  35   2.0000      -1.364901       -37.1408
  36   2.0000      -1.355400       -36.8823
  37   2.0000      -1.338386       -36.4193
  38   2.0000      -0.850984       -23.1564
  39   2.0000      -0.783173       -21.3112
  40   2.0000      -0.649619       -17.6770
  41   2.0000      -0.611579       -16.6419
  42   2.0000      -0.609113       -16.5748
  43   2.0000      -0.579157       -15.7597
  44   2.0000      -0.517388       -14.0788
  45   2.0000      -0.514653       -14.0044
  46   2.0000      -0.483000       -13.1431
  47   2.0000      -0.470326       -12.7982
  48   2.0000      -0.454955       -12.3800
  49   2.0000      -0.441510       -12.0141
  50   2.0000      -0.344436        -9.3726
  51   2.0000      -0.342700        -9.3253
  52   2.0000      -0.337282        -9.1779
  53   2.0000      -0.335641        -9.1332
  54   2.0000      -0.333152        -9.0655
  55   2.0000      -0.298436        -8.1209
  56   2.0000      -0.292918        -7.9707
  57   2.0000      -0.290449        -7.9035
  58   2.0000      -0.288303        -7.8451
  59   2.0000      -0.282791        -7.6951
  60   2.0000      -0.274304        -7.4642
  61   2.0000      -0.265128        -7.2145
  62   2.0000      -0.256057        -6.9677
  63   2.0000      -0.234263        -6.3746
  64   2.0000      -0.223691        -6.0870
  65   2.0000      -0.192858        -5.2479
  66   2.0000      -0.180268        -4.9053
  67   2.0000      -0.172994        -4.7074
  68   2.0000      -0.169953        -4.6247
  69   2.0000      -0.163733        -4.4554
  70   2.0000      -0.154863        -4.2140
  71   2.0000      -0.135313        -3.6821
  72   2.0000      -0.122518        -3.3339
  73   2.0000      -0.119135        -3.2418
  74   2.0000      -0.117635        -3.2010
  75   2.0000      -0.103797        -2.8245
  76   2.0000      -0.095289        -2.5930
  77   2.0000      -0.089904        -2.4464
  78   2.0000      -0.072185        -1.9643
  79   2.0000      -0.071639        -1.9494
  80   2.0000      -0.054381        -1.4798
  81   2.0000      -0.018742        -0.5100
  82   2.0000      -0.005189        -0.1412
  83   0.0000       0.056086         1.5262
  84   0.0000       0.059697         1.6244
  85   0.0000       0.065094         1.7713
  86   0.0000       0.078257         2.1295
  87   0.0000       0.085987         2.3398

MULLIKEN ATOMIC CHARGES
-----------------------
   0 O :   -0.176540
   1 Mo:   -0.360150
   2 O :   -0.363474
   3 S :   -0.423441
   4 C :    0.163887
   5 C :    0.160621
   6 S :   -0.390532
   7 S :   -0.398512
   8 C :    0.136054
   9 C :    0.162305
  10 S :   -0.394026
  11 S :    0.445316
  12 C :   -0.217000
  13 H :    0.079411
  14 H :    0.101707
  15 H :    0.140040
  16 C :   -0.271481
  17 H :    0.081148
  18 H :    0.127337
  19 H :    0.093707
  20 C :   -0.086975
  21 H :    0.068937
  22 H :    0.030711
  23 H :    0.045892
  24 H :    0.054287
  25 H :    0.067872
  26 H :    0.059903
  27 H :    0.062996
Sum of atomic charges:   -1.0000000

LOEWDIN ATOMIC CHARGES
----------------------
   0 O :   -0.509188
   1 Mo:    0.218901
   2 O :   -0.667004
   3 S :    0.556688
   4 C :   -0.592266
   5 C :   -0.607146
   6 S :    0.538945
   7 S :    0.548744
   8 C :   -0.597129
   9 C :   -0.607647
  10 S :    0.534290
  11 S :    0.944206
  12 C :   -0.000710
  13 H :   -0.048021
  14 H :   -0.031611
  15 H :   -0.040457
  16 C :   -0.033474
  17 H :   -0.041568
  18 H :   -0.045205
  19 H :   -0.038276
  20 C :   -0.075189
  21 H :   -0.041861
  22 H :   -0.012284
  23 H :   -0.043582
  24 H :   -0.076896
  25 H :   -0.077107
  26 H :   -0.077788
  27 H :   -0.077365

  Mayer bond orders larger than 0.100000
B(  0-O ,  1-Mo) :   0.4577 B(  0-O ,  2-O ) :  -0.1636 B(  0-O ,  3-S ) :  -0.1423
B(  0-O ,  7-S ) :  -0.1626 B(  0-O , 11-S ) :   0.1293 B(  0-O , 20-C ) :   1.0938
B(  1-Mo,  2-O ) :   0.3613 B(  1-Mo,  3-S ) :   1.4349 B(  1-Mo,  6-S ) :   1.3878
B(  1-Mo,  7-S ) :   1.3485 B(  1-Mo, 10-S ) :   1.3415 B(  2-O ,  6-S ) :  -0.1663
B(  2-O , 11-S ) :   1.3304 B(  2-O , 12-C ) :   0.1024 B(  3-S ,  4-C ) :   0.8399
B(  4-C ,  5-C ) :   1.6746 B(  4-C , 25-H ) :   1.0486 B(  5-C ,  6-S ) :   0.8568
B(  5-C , 24-H ) :   1.0492 B(  7-S ,  8-C ) :   0.8770 B(  8-C ,  9-C ) :   1.6854
B(  8-C , 27-H ) :   1.0514 B(  9-C , 10-S ) :   0.8655 B(  9-C , 26-H ) :   1.0458
B( 11-S , 12-C ) :   0.8441 B( 11-S , 16-C ) :   0.9383 B( 12-C , 13-H ) :   1.0299
B( 12-C , 14-H ) :   0.9421 B( 12-C , 15-H ) :   0.9526 B( 12-C , 16-C ) :   0.1106
B( 16-C , 17-H ) :   0.9875 B( 16-C , 18-H ) :   0.9406 B( 16-C , 19-H ) :   0.9958
B( 20-C , 21-H ) :   0.9339 B( 20-C , 22-H ) :   0.9882 B( 20-C , 23-H ) :   0.9584

Dispersion correction           -0.065736237
FINAL SINGLE POINT ENERGY     -2484.893926671631

DIPOLE MOMENT
-------------
                                X             Y             Z
Electronic contribution:     33.81580      -1.18016      -4.15396
Nuclear contribution   :    -37.01048       1.06082       4.72052
                        -----------------------------------------
Total Dipole Moment    :     -3.19468      -0.11933       0.56656
                        -----------------------------------------
Magnitude (a.u.)       :      3.24673
Magnitude (Debye)      :      8.25252

Rotational constants in cm-1:     0.012467     0.009914     0.008398
Rotational constants in MHz :   373.762122   297.203486   251.777416

                             ****ORCA TERMINATED NORMALLY****
TOTAL RUN TIME: 0 days 0 hours 0 minutes 33 seconds 944 msec
