                         Program Version 4.2.0 -  RELEASE  -
|  1> #
|  2> # TMB01_R2 TPSS-D3BJ/Def2-TZVPPD
|  3> #
|  4> ! tpss d3bj def2-tzvppd def2/j grid4 nofinalgrid
|  5>
|  6> *xyz 0 1
|  7> C        0.000000    0.000000    0.598253
|  8> C        0.000000    0.000000   -0.598253
|  9> H        0.000000    0.000000    1.662161
| 10> H        0.000000    0.000000   -1.662161
| 11> *
| 12>
| 13> %maxcore 5000
| 14>
| 15> %pal
| 16> nprocs = 24
| 17> end
| 18>
| 19>
| 20>                          ****END OF INPUT****

CARTESIAN COORDINATES (ANGSTROEM)
---------------------------------
  C      0.000000    0.000000    0.598253
  C      0.000000    0.000000   -0.598253
  H      0.000000    0.000000    1.662161
  H      0.000000    0.000000   -1.662161

 Total Charge           Charge          ....    0
 Multiplicity           Mult            ....    1
 Number of Electrons    NEL             ....   14
 Basis Dimension        Dim             ....  108

ORBITAL ENERGIES
----------------

  NO   OCC          E(Eh)            E(eV)
   0   2.0000      -9.993839      -271.9462
   1   2.0000      -9.991595      -271.8851
   2   2.0000      -0.699569       -19.0362
   3   2.0000      -0.528089       -14.3700
   4   2.0000      -0.455930       -12.4065
   5   2.0000      -0.264723        -7.2035
   6   2.0000      -0.264723        -7.2035
   7   0.0000      -0.002100        -0.0572
   8   0.0000      -0.002100        -0.0572
   9   0.0000       0.016169         0.4400
  10   0.0000       0.025592         0.6964
  11   0.0000       0.072720         1.9788

MULLIKEN ATOMIC CHARGES
-----------------------
   0 C :    0.020792
   1 C :    0.020664
   2 H :   -0.020721
   3 H :   -0.020735
Sum of atomic charges:    0.0000000

LOEWDIN ATOMIC CHARGES
----------------------
   0 C :    0.101176
   1 C :    0.101176
   2 H :   -0.101176
   3 H :   -0.101176

  Mayer bond orders larger than 0.100000
B(  0-C ,  1-C ) :   2.2691 B(  0-C ,  2-H ) :   1.2709 B(  0-C ,  3-H ) :  -0.2137
B(  1-C ,  2-H ) :  -0.2137 B(  1-C ,  3-H ) :   1.2710

Dispersion correction           -0.001610198
FINAL SINGLE POINT ENERGY       -77.376081850352

DIPOLE MOMENT
-------------
                                X             Y             Z
Electronic contribution:     -0.00000      -0.00000      -0.00000
Nuclear contribution   :      0.00000       0.00000       0.00000
                        -----------------------------------------
Total Dipole Moment    :     -0.00000      -0.00000      -0.00000
                        -----------------------------------------
Magnitude (a.u.)       :      0.00000
Magnitude (Debye)      :      0.00000

Rotational constants in cm-1:     0.000000     1.189890     1.189890
Rotational constants in MHz :     0.000000 35672.008035 35672.008035

                             ****ORCA TERMINATED NORMALLY****
TOTAL RUN TIME: 0 days 0 hours 0 minutes 2 seconds 553 msec
