                         Program Version 4.2.0 -  RELEASE  -
|  1> #
|  2> # TMB01_T1 TPSS-D3BJ/Def2-TZVPPD
|  3> #
|  4> ! tpss d3bj def2-tzvppd def2/j grid4 nofinalgrid
|  5>
|  6> *xyz 0 1
|  7> Zr       0.019829   -0.026802    0.120636
|  8> C        2.239874   -0.374444    1.245397
|  9> C        1.976783   -1.521588    0.474285
| 10> C        2.416443    0.711808    0.354001
| 11> H        1.819060   -2.516470    0.858019
| 12> C        2.001810   -1.148643   -0.895658
| 13> H        2.608112    1.737773    0.630719
| 14> C        2.298913    0.223349   -0.961356
| 15> H        1.861573   -1.806504   -1.739184
| 16> H        2.356666    0.814844   -1.859655
| 17> C       -1.057190   -2.235373    0.523484
| 18> C       -1.856346   -1.294393    1.201077
| 19> C       -1.167009   -1.987955   -0.868757
| 20> H       -2.005770   -1.236737    2.266001
| 21> C       -2.451652   -0.457501    0.227470
| 22> H       -0.689853   -2.550694   -1.656100
| 23> C       -2.043033   -0.903228   -1.046149
| 24> H       -3.108339    0.375352    0.426641
| 25> H       -2.305042   -0.449162   -1.987488
| 26> Cl      -0.345437    1.661478   -1.736503
| 27> C       -1.133945    2.698822    1.012771
| 28> C       -0.495222    2.377308    1.980322
| 29> H       -1.676629    3.004729    0.150271
| 30> H       -0.029188    0.104247    1.943645
| 31> H        0.041631    2.180985    2.876056
| 32> H        2.316195   -0.336400    2.319120
| 33> H       -0.485725   -3.023975    0.985751
| 34> *
| 35>
| 36> %maxcore 5000
| 37>
| 38> %pal
| 39> nprocs = 24
| 40> end
| 41>
| 42>
| 43>                          ****END OF INPUT****

CARTESIAN COORDINATES (ANGSTROEM)
---------------------------------
  Zr     0.019829   -0.026802    0.120636
  C      2.239874   -0.374444    1.245397
  C      1.976783   -1.521588    0.474285
  C      2.416443    0.711808    0.354001
  H      1.819060   -2.516470    0.858019
  C      2.001810   -1.148643   -0.895658
  H      2.608112    1.737773    0.630719
  C      2.298913    0.223349   -0.961356
  H      1.861573   -1.806504   -1.739184
  H      2.356666    0.814844   -1.859655
  C     -1.057190   -2.235373    0.523484
  C     -1.856346   -1.294393    1.201077
  C     -1.167009   -1.987955   -0.868757
  H     -2.005770   -1.236737    2.266001
  C     -2.451652   -0.457501    0.227470
  H     -0.689853   -2.550694   -1.656100
  C     -2.043033   -0.903228   -1.046149
  H     -3.108339    0.375352    0.426641
  H     -2.305042   -0.449162   -1.987488
  Cl    -0.345437    1.661478   -1.736503
  C     -1.133945    2.698822    1.012771
  C     -0.495222    2.377308    1.980322
  H     -1.676629    3.004729    0.150271
  H     -0.029188    0.104247    1.943645
  H      0.041631    2.180985    2.876056
  H      2.316195   -0.336400    2.319120
  H     -0.485725   -3.023975    0.985751

 Total Charge           Charge          ....    0
 Multiplicity           Mult            ....    1
 Number of Electrons    NEL             ....  114
 Basis Dimension        Dim             ....  772

ORBITAL ENERGIES
----------------

  NO   OCC          E(Eh)            E(eV)
   0   2.0000    -100.917659     -2746.1091
   1   2.0000     -10.008172      -272.3362
   2   2.0000     -10.003929      -272.2208
   3   2.0000     -10.003661      -272.2134
   4   2.0000     -10.002761      -272.1890
   5   2.0000     -10.001234      -272.1474
   6   2.0000     -10.000626      -272.1309
   7   2.0000     -10.000119      -272.1171
   8   2.0000      -9.999777      -272.1078
   9   2.0000      -9.999234      -272.0930
  10   2.0000      -9.998944      -272.0851
  11   2.0000      -9.996996      -272.0321
  12   2.0000      -9.996953      -272.0309
  13   2.0000      -9.168640      -249.4914
  14   2.0000      -6.943123      -188.9320
  15   2.0000      -6.940221      -188.8530
  16   2.0000      -6.939899      -188.8442
  17   2.0000      -2.015701       -54.8500
  18   2.0000      -1.185820       -32.2678
  19   2.0000      -1.182229       -32.1701
  20   2.0000      -1.171932       -31.8899
  21   2.0000      -0.832854       -22.6631
  22   2.0000      -0.823488       -22.4082
  23   2.0000      -0.714546       -19.4438
  24   2.0000      -0.683403       -18.5964
  25   2.0000      -0.668503       -18.1909
  26   2.0000      -0.667581       -18.1658
  27   2.0000      -0.666429       -18.1344
  28   2.0000      -0.662712       -18.0333
  29   2.0000      -0.534403       -14.5418
  30   2.0000      -0.514675       -14.0050
  31   2.0000      -0.510105       -13.8807
  32   2.0000      -0.505794       -13.7634
  33   2.0000      -0.505046       -13.7430
  34   2.0000      -0.498850       -13.5744
  35   2.0000      -0.491768       -13.3817
  36   2.0000      -0.462000       -12.5717
  37   2.0000      -0.384499       -10.4628
  38   2.0000      -0.370186       -10.0733
  39   2.0000      -0.369929       -10.0663
  40   2.0000      -0.367764       -10.0074
  41   2.0000      -0.366063        -9.9611
  42   2.0000      -0.352426        -9.5900
  43   2.0000      -0.350309        -9.5324
  44   2.0000      -0.349047        -9.4981
  45   2.0000      -0.347848        -9.4654
  46   2.0000      -0.346399        -9.4260
  47   2.0000      -0.301203        -8.1962
  48   2.0000      -0.281764        -7.6672
  49   2.0000      -0.271179        -7.3792
  50   2.0000      -0.263040        -7.1577
  51   2.0000      -0.250853        -6.8261
  52   2.0000      -0.246064        -6.6958
  53   2.0000      -0.243603        -6.6288
  54   2.0000      -0.233081        -6.3424
  55   2.0000      -0.209622        -5.7041
  56   2.0000      -0.201515        -5.4835
  57   0.0000      -0.062985        -1.7139
  58   0.0000      -0.039624        -1.0782
  59   0.0000      -0.033894        -0.9223
  60   0.0000      -0.014690        -0.3997
  61   0.0000      -0.013554        -0.3688

MULLIKEN ATOMIC CHARGES
-----------------------
   0 Zr:   -1.076008
   1 C :    0.119717
   2 C :    0.286859
   3 C :    0.219642
   4 H :    0.020135
   5 C :    0.132946
   6 H :    0.014327
   7 C :    0.015012
   8 H :    0.007363
   9 H :    0.030582
  10 C :    0.092328
  11 C :    0.136991
  12 C :    0.199911
  13 H :    0.016910
  14 C :    0.136871
  15 H :   -0.011172
  16 C :    0.137928
  17 H :    0.092341
  18 H :   -0.012110
  19 Cl:   -0.636717
  20 C :    0.047420
  21 C :    0.017396
  22 H :    0.070917
  23 H :   -0.088641
  24 H :    0.006167
  25 H :    0.009256
  26 H :    0.013630
Sum of atomic charges:   -0.0000000

LOEWDIN ATOMIC CHARGES
----------------------
   0 Zr:    0.438194
   1 C :   -0.055596
   2 C :   -0.049347
   3 C :   -0.045236
   4 H :    0.001063
   5 C :   -0.040651
   6 H :    0.007677
   7 C :   -0.076979
   8 H :    0.005697
   9 H :   -0.015116
  10 C :   -0.050486
  11 C :   -0.051647
  12 C :   -0.039262
  13 H :   -0.000719
  14 C :   -0.047685
  15 H :    0.006220
  16 C :   -0.069408
  17 H :    0.004538
  18 H :   -0.011837
  19 Cl:    0.166942
  20 C :    0.049461
  21 C :    0.076044
  22 H :   -0.111097
  23 H :   -0.008822
  24 H :   -0.081098
  25 H :   -0.001916
  26 H :    0.001066

  Mayer bond orders larger than 0.100000
B(  0-Zr,  1-C ) :   0.3245 B(  0-Zr,  2-C ) :   0.3639 B(  0-Zr,  3-C ) :   0.4655
B(  0-Zr,  5-C ) :   0.5611 B(  0-Zr,  7-C ) :   0.4615 B(  0-Zr,  8-H ) :   0.1148
B(  0-Zr, 10-C ) :   0.5466 B(  0-Zr, 11-C ) :   0.3344 B(  0-Zr, 12-C ) :   0.4695
B(  0-Zr, 14-C ) :   0.4652 B(  0-Zr, 15-H ) :   0.1194 B(  0-Zr, 16-C ) :   0.3369
B(  0-Zr, 19-Cl) :   0.5597 B(  0-Zr, 20-C ) :   0.3283 B(  0-Zr, 21-C ) :   0.1860
B(  0-Zr, 23-H ) :   0.9297 B(  1-C ,  2-C ) :   1.1063 B(  1-C ,  3-C ) :   1.0071
B(  1-C , 25-H ) :   1.0536 B(  2-C ,  4-H ) :   1.0284 B(  2-C ,  5-C ) :   0.9066
B(  2-C , 10-C ) :   0.1112 B(  3-C ,  6-H ) :   1.0193 B(  3-C ,  7-C ) :   1.0006
B(  3-C , 19-Cl) :  -0.1014 B(  5-C ,  7-C ) :   1.0418 B(  5-C ,  8-H ) :   1.0603
B(  5-C , 12-C ) :   0.1001 B(  7-C ,  9-H ) :   1.0547 B(  9-H , 19-Cl) :   0.1232
B( 10-C , 11-C ) :   1.0991 B( 10-C , 12-C ) :   0.9286 B( 10-C , 26-H ) :   1.0689
B( 11-C , 13-H ) :   1.0526 B( 11-C , 14-C ) :   1.0039 B( 12-C , 15-H ) :   1.0674
B( 12-C , 16-C ) :   1.0075 B( 14-C , 16-C ) :   1.0679 B( 14-C , 17-H ) :   0.9925
B( 14-C , 19-Cl) :  -0.1470 B( 16-C , 18-H ) :   1.0472 B( 18-H , 19-Cl) :   0.1514
B( 20-C , 21-C ) :   2.0535 B( 20-C , 22-H ) :   1.1648 B( 20-C , 24-H ) :  -0.3090
B( 21-C , 22-H ) :  -0.1916 B( 21-C , 24-H ) :   1.3256

Dispersion correction           -0.050924754
FINAL SINGLE POINT ENERGY      -972.757317185039

DIPOLE MOMENT
-------------
                                X             Y             Z
Electronic contribution:      0.48011       2.15060       2.46365
Nuclear contribution   :     -0.31433      -2.93943      -1.59819
                        -----------------------------------------
Total Dipole Moment    :      0.16578      -0.78883       0.86546
                        -----------------------------------------
Magnitude (a.u.)       :      1.18269
Magnitude (Debye)      :      3.00616

Rotational constants in cm-1:     0.021527     0.019953     0.016159
Rotational constants in MHz :   645.375909   598.178243   484.447118

                             ****ORCA TERMINATED NORMALLY****
TOTAL RUN TIME: 0 days 0 hours 0 minutes 32 seconds 920 msec
