                         Program Version 4.2.0 -  RELEASE  -
|  1> # input to generate an atomic fitting density for Zr
|  2> # this file is use internally by ORCA
|  3> #
|  4> # atomic ground state (S=3): 1s2 2s2 2p6 3s2 3p6 4s2 3d10 4p6 4d2 5s2
|  5> #
|  6> ! RHF AllowRHF def2-SVP def2/J  NoMulliken NoLoewdin NoMayer NoPrintMOs
|  7>
|  8> %output print[p_atomdensfit] 2 end
|  9>
| 10> %scf
| 11>   guess hcore
| 12>   maxiter 1000
| 13>   maxdisk 500000
| 14>   SCFMode Conventional
| 15>   lshift 0.300000
| 16>   hftyp rohf
| 17>   rohf_case sahf
| 18>   rohf_numop   3
| 19>   rohf_norb[1] 5,1
| 20>   rohf_nel[1]  2,2
| 21> end
| 22>
| 23> %basis
| 24>   NewECP 40
| 25>     N_core 28
| 26>     lmax f
| 27>     s 4
| 28>       1       8.2000000000    150.2675911000  2
| 29>       2       4.0897278000     18.9762165000  2
| 30>       3       7.5400000000     21.0937760000  2
| 31>       4       3.7700000000      3.0806943000  2
| 32>     p 4
| 33>       1       7.1100000000     99.6221237000  2
| 34>       2       3.5967980000     14.1687333000  2
| 35>       3       7.5400000000     21.0937760000  2
| 36>       4       3.7700000000      3.0806943000  2
| 37>     d 4
| 38>       1       5.3500000000     35.0451235000  2
| 39>       2       2.4918215000      6.1112595000  2
| 40>       3       7.5400000000     21.0937760000  2
| 41>       4       3.7700000000      3.0806943000  2
| 42>     f 2
| 43>       1       7.5400000000    -21.0937760000  2
| 44>       2       3.7700000000     -3.0806943000  2
| 45>   end
| 46>   NewGTO 40
| 47>     s 2
| 48>      1      11.0000000000     -1.2721918001
| 49>      2       9.5000000000      2.2605685160
| 50>     s 1
| 51>      1       3.6383667759      1.0000000000
| 52>     s 1
| 53>      1       0.7682202670      1.0000000000
| 54>     s 1
| 55>      1       0.3403682404      1.0000000000
| 56>     s 1
| 57>      1       0.0752612981      1.0000000000
| 58>     s 1
| 59>      1       0.0301314047      1.0000000000
| 60>     p 4
| 61>      1       8.6066305543      0.0424669011
| 62>      2       4.4400979958     -0.2226938137
| 63>      3       1.1281026946      0.5167410683
| 64>      4       0.5434607631      0.6022871253
| 65>     p 1
| 66>      1       0.2502240605      1.0000000000
| 67>     p 1
| 68>      1       0.0850000000      1.0000000000
| 69>     p 1
| 70>      1       0.0290000000      1.0000000000
| 71>     d 3
| 72>      1       4.5567957795     -0.0166279255
| 73>      2       1.2904939797      0.3555819112
| 74>      3       0.5164698722      0.7231156937
| 75>     d 1
| 76>      1       0.1934979779      1.0000000000
| 77>     d 1
| 78>      1       0.0673098100      1.0000000000
| 79>   end
| 80>   NewAuxGTO 40
| 81>     S 1
| 82>      1 1310.72 1.0
| 83>     S 1
| 84>      1  655.36 1.0
| 85>     S 1
| 86>      1  327.68 1.0
| 87>     S 1
| 88>      1  163.84 1.0
| 89>     S 1
| 90>      1   81.82 1.0
| 91>     S 1
| 92>      1   40.96 1.0
| 93>     S 1
| 94>      1   20.48 1.0
| 95>     S 1
| 96>      1   10.24 1.0
| 97>     S 1
| 98>      1    5.12 1.0
| 99>     S 1
|100>      1    2.56 1.0
|101>     S 1
|102>      1    1.28 1.0
|103>     S 1
|104>      1    0.64 1.0
|105>     S 1
|106>      1    0.32 1.0
|107>     S 1
|108>      1    0.16 1.0
|109>     S 1
|110>      1    0.08 1.0
|111>     S 1
|112>      1    0.04 1.0
|113>     S 1
|114>      1    0.02 1.0
|115>     S 1
|116>      1    0.01 1.0
|117>   end
|118> end
|119>
|120> * xyz 0 3
|121> 40  0.0 0.0 0.0
|122> *
|123>
|124>
|125>                          ****END OF INPUT****

CARTESIAN COORDINATES (ANGSTROEM)
---------------------------------
  Zr     0.000000    0.000000    0.000000

 Total Charge           Charge          ....    0
 Multiplicity           Mult            ....    3
 Number of Electrons    NEL             ....   12
 Basis Dimension        Dim             ....   33

ORBITAL ENERGIES
----------------

  NO   OCC          E(Eh)            E(eV)
   0   2.0000      -2.806465       -76.3678
   1   2.0000      -1.768839       -48.1325
   2   2.0000      -1.768838       -48.1325
   3   2.0000      -1.758078       -47.8397
   4   0.4000      -0.461116       -12.5476
   5   0.4000      -0.441841       -12.0231
   6   0.4000      -0.398280       -10.8378
   7   0.4000      -0.223112        -6.0712
   8   0.4000      -0.223112        -6.0712
   9   2.0000      -0.154857        -4.2139
  10   0.0000      -0.093921        -2.5557
  11   0.0000      -0.082488        -2.2446
  12   0.0000      -0.082488        -2.2446
  13   0.0000       0.089989         2.4487
  14   0.0000       0.124643         3.3917

CleanUpVectors: The p-vectors have cracked symmetry
CleanUpVectors: The p-vectors have cracked symmetry
CleanUpVectors: The p-vectors have cracked symmetry
CleanUpVectors: The d-vectors have cracked symmetry at i=5
CleanUpVectors: The d-vectors have cracked symmetry at i=6
CleanUpVectors: The p-vectors have cracked symmetry
CleanUpVectors: The p-vectors have cracked symmetry
CleanUpVectors: The p-vectors have cracked symmetry
CleanUpVectors: The d-vectors have cracked symmetry at i=10
CleanUpVectors: The d-vectors have cracked symmetry at i=11
CleanUpVectors: The d-vectors have cracked symmetry at i=12
CleanUpVectors: The p-vectors have cracked symmetry
CleanUpVectors: The p-vectors have cracked symmetry
CleanUpVectors: The p-vectors have cracked symmetry
CleanUpVectors: The d-vectors have cracked symmetry at i=17
CleanUpVectors: The d-vectors have cracked symmetry at i=18
CleanUpVectors: The d-vectors have cracked symmetry at i=19
CleanUpVectors: The d-vectors have cracked symmetry at i=20
CleanUpVectors: The d-vectors have cracked symmetry at i=21
CleanUpVectors: The d-vectors have cracked symmetry at i=22
CleanUpVectors: The d-vectors have cracked symmetry at i=23
CleanUpVectors: The d-vectors have cracked symmetry at i=24
CleanUpVectors: The d-vectors have cracked symmetry at i=25
CleanUpVectors: The d-vectors have cracked symmetry at i=26
CleanUpVectors: The p-vectors have cracked symmetry
CleanUpVectors: The p-vectors have cracked symmetry
CleanUpVectors: The p-vectors have cracked symmetry
--------------------------
ATOM BASIS FOR ELEMENT Zr
--------------------------
 NewGTO Zr
 S 7
    1         11.000000000000        -0.212499597814
    2          9.500000000000         0.377592357099
    3          3.638366775900        -0.626137395182
    4          0.768220267000         0.901688619032
    5          0.340368240400         0.374930774866
    6          0.075261298100        -0.002388906192
    7          0.030131404700         0.002556168413
 P 19
    1         11.000000000000        -0.000000004192
    2          9.500000000000         0.000000008016
    3          3.638366775900        -0.000000022514
    4          0.768220267000         0.000000113886
    5          8.606630554300        -0.000932884503
    6          4.440097995800         0.004891988873
    7          1.128102694600        -0.011351422449
    8          0.543460763100        -0.013230641059
    9          8.606630554300        -0.027619186097
   10          4.440097995800         0.144833310742
   11          1.128102694600        -0.336072738055
   12          0.543460763100        -0.391709302226
   13          8.606630554300         0.025232416274
   14          4.440097995800        -0.132317236795
   15          1.128102694600         0.307030308387
   16          0.543460763100         0.357858922316
   17          0.250224060500        -0.003781231568
   18          0.250224060500        -0.111947983065
   19          0.250224060500         0.102273763685
 S 7
    1         11.000000000000        -0.086074249368
    2          9.500000000000         0.152946071610
    3          3.638366775900        -0.268870036232
    4          0.768220267000         0.586240074954
    5          0.340368240400         0.203817155138
    6          0.075261298100        -1.109438968850
    7          0.030131404700        -0.073231683801
 P 19
    1         11.000000000000         0.000000298428
    2          9.500000000000        -0.000000570610
    3          3.638366775900         0.000001623706
    4          0.768220267000        -0.000007793300
    5          0.340368240400        -0.000004066035
    6          0.075261298100         0.000051327940
    7          8.606630554300        -0.000001477606
    8          4.440097995800         0.000007748477
    9          1.128102694600        -0.000017979648
   10          0.543460763100        -0.000020956164
   11          8.606630554300         0.000000013278
   12          4.440097995800        -0.000000069630
   13          1.128102694600         0.000000161571
   14          0.543460763100         0.000000188319
   15          8.606630554300        -0.000000060475
   16          4.440097995800         0.000000317127
   17          1.128102694600        -0.000000735865
   18          0.543460763100        -0.000000857687
   19          0.250224060500        -0.000003260079
 S 7
    1         11.000000000000        -2.296734602111
    2          9.500000000000         4.081087404220
    3          3.638366775900        -3.170383012008
    4          0.768220267000         2.031797410121
    5          0.340368240400        -1.337985319296
    6          0.075261298100         0.458998300639
    7          0.030131404700        -0.196852800993
 S 7
    1         11.000000000000        -2.618176765615
    2          9.500000000000         4.652260740249
    3          3.638366775900        -1.536747557947
    4          0.768220267000         0.680128593406
    5          0.340368240400        -0.429782169053
    6          0.075261298100         0.145922952386
    7          0.030131404700        -0.062704054852
 S 19
    1         11.000000000000        -0.007290006314
    2          9.500000000000         0.012953674716
    3          3.638366775900        -0.022983575418
    4          0.768220267000         0.043713418222
    5          0.340368240400         0.039839875344
    6          0.075261298100        -0.106443234498
    7          0.030131404700        -0.046738449728
    8          8.606630554300         0.000019571380
    9          4.440097995800        -0.000073715487
   10          1.128102694600         0.000086218727
   11          0.543460763100         0.000069749642
   12          8.606630554300        -0.000000037417
   13          4.440097995800         0.000000140929
   14          1.128102694600        -0.000000164833
   15          8.606630554300         0.000000778339
   16          4.440097995800        -0.000002931608
   17          1.128102694600         0.000003428852
   18          0.543460763100         0.000002773889
   19          0.250224060500         0.000006888135
 P 19
    1         11.000000000000        -0.000000016363
    2          9.500000000000         0.000000031287
    3          3.638366775900        -0.000000088837
    4          0.768220267000         0.000000446632
    5          0.075261298100        -0.000002346386
    6          8.606630554300        -0.000377966965
    7          4.440097995800         0.001982035485
    8          1.128102694600        -0.004599135992
    9          0.543460763100        -0.005360519156
   10          8.606630554300        -0.011168427823
   11          4.440097995800         0.058566547606
   12          1.128102694600        -0.135898433250
   13          0.543460763100        -0.158396306615
   14          8.606630554300         0.010223254701
   15          4.440097995800        -0.053610117971
   16          1.128102694600         0.124397481780
   17          0.543460763100         0.144991382129
   18          0.250224060500        -0.000233837976
   19          0.250224060500        -0.006909605182
 D 19
    1          8.606630554300         0.000000058713
    2          4.440097995800        -0.000000428658
    3          1.128102694600         0.000001973320
    4          0.543460763100         0.000003313739
    5          4.440097995800        -0.000000002817
    6          8.606630554300         0.000000003003
    7          4.440097995800        -0.000000021921
    8          1.128102694600         0.000000100913
    9          0.543460763100         0.000000169461
   10          0.250224060500         0.000001677272
   11          0.085000000000        -0.000025942888
   12          0.029000000000        -0.000067367006
   13          4.556795779500        -0.000011479172
   14          1.290493979700         0.000245477766
   15          0.516469872200         0.000499206567
   16          4.556795779500        -0.000029921268
   17          1.290493979700         0.000639855025
   18          0.516469872200         0.001301216950
   19          4.556795779500         0.000360231788
 P 19
    1         11.000000000000        -0.000000020068
    2          9.500000000000         0.000000038371
    3          3.638366775900        -0.000000127744
    4          0.768220267000         0.000000124787
    5          0.340368240400         0.000003385525
    6          0.075261298100        -0.000028862947
    7          0.030131404700         0.000044882298
    8          8.606630554300        -0.009467423618
    9          4.440097995800         0.049646586324
   10          1.128102694600        -0.115200461243
   11          0.543460763100        -0.134271802440
   12          8.606630554300         0.000001647479
   13          4.440097995800        -0.000008639280
   14          1.128102694600         0.000020046676
   15          0.543460763100         0.000023365387
   16          8.606630554300        -0.000348223115
   17          4.440097995800         0.001826060568
   18          1.128102694600        -0.004237210154
   19          0.543460763100        -0.004938676795
 S 19
    1         11.000000000000         0.001181264098
    2          9.500000000000        -0.002098998302
    3          3.638366775900         0.004396055643
    4          0.768220267000         0.001663832485
    5          0.340368240400        -0.047547184704
    6          0.075261298100         0.159599474719
    7          0.030131404700        -0.142256560515
    8          8.606630554300        -0.000001580360
    9          4.440097995800         0.000005952417
   10          1.128102694600        -0.000006962035
   11          0.543460763100        -0.000005632181
   12          8.606630554300        -0.000000074096
   13          4.440097995800         0.000000279081
   14          1.128102694600        -0.000000326417
   15          0.543460763100        -0.000000264067
   16          0.250224060500        -0.000005760974
   17          0.085000000000         0.000024012125
   18          0.085000000000         0.000001107488
   19          0.029000000000        -0.000015729562
 D 19
    1          8.606630554300         0.000000004368
    2          4.440097995800        -0.000000031891
    3          1.128102694600         0.000000146809
    4          0.543460763100         0.000000246532
    5          8.606630554300         0.000000001918
    6          4.440097995800        -0.000000014001
    7          1.128102694600         0.000000064451
    8          0.543460763100         0.000000108231
    9          0.250224060500         0.000004018620
   10          0.250224060500        -0.000004648032
   11          0.085000000000        -0.000004039869
   12          0.085000000000        -0.000029634314
   13          0.085000000000         0.000031780148
   14          0.029000000000         0.000047756651
   15          0.029000000000        -0.000050839267
   16          4.556795779500         0.000238573671
   17          1.290493979700        -0.005101807904
   18          0.516469872200        -0.010375098523
   19          4.556795779500         0.004081922744
 D 19
    1          8.606630554300         0.000000008106
    2          4.440097995800        -0.000000059180
    3          1.128102694600         0.000000272432
    4          0.543460763100         0.000000457488
    5          8.606630554300        -0.000000004822
    6          4.440097995800         0.000000035203
    7          1.128102694600        -0.000000162057
    8          0.543460763100        -0.000000272138
    9          8.606630554300        -0.000000001395
   10          4.440097995800         0.000000010188
   11          1.128102694600        -0.000000046901
   12          0.250224060500        -0.000002163881
   13          0.250224060500         0.000003155590
   14          0.250224060500        -0.000001789266
   15          0.085000000000         0.000003228818
   16          0.085000000000        -0.000003376041
   17          4.556795779500        -0.000773030652
   18          1.290493979700         0.016530968747
   19          0.516469872200         0.033617578837
 end
  // -----------------------------------------------
  // The basis set
  // -----------------------------------------------
  BAS[ATNO] = new BFNGauss[NSH];
  // Basis function   1 L = s
  InitBFNGauss(BAS[ATNO][  0]);
  BAS[ATNO][  0].l  = 0;
  BAS[ATNO][  0].ng = 7;
  BAS[ATNO][  0].a[  0] =        11.000000000000;     BAS[ATNO][  0].d[  0] =        -0.212499597814;
  BAS[ATNO][  0].a[  1] =         9.500000000000;     BAS[ATNO][  0].d[  1] =         0.377592357099;
  BAS[ATNO][  0].a[  2] =         3.638366775900;     BAS[ATNO][  0].d[  2] =        -0.626137395182;
  BAS[ATNO][  0].a[  3] =         0.768220267000;     BAS[ATNO][  0].d[  3] =         0.901688619032;
  BAS[ATNO][  0].a[  4] =         0.340368240400;     BAS[ATNO][  0].d[  4] =         0.374930774866;
  BAS[ATNO][  0].a[  5] =         0.075261298100;     BAS[ATNO][  0].d[  5] =        -0.002388906192;
  BAS[ATNO][  0].a[  6] =         0.030131404700;     BAS[ATNO][  0].d[  6] =         0.002556168413;

FINAL SINGLE POINT ENERGY       -46.053051794134

DIPOLE MOMENT
-------------
                                X             Y             Z
Electronic contribution:      0.00001      -0.00002      -0.00007
Nuclear contribution   :      0.00000       0.00000       0.00000
                        -----------------------------------------
Total Dipole Moment    :      0.00001      -0.00002      -0.00007
                        -----------------------------------------
Magnitude (a.u.)       :      0.00008
Magnitude (Debye)      :      0.00019

Rotational constants in cm-1:     0.000000     0.000000     0.000000
Rotational constants in MHz :     0.000000     0.000000     0.000000

                             ****ORCA TERMINATED NORMALLY****
TOTAL RUN TIME: 0 days 0 hours 0 minutes 2 seconds 32 msec
