                         Program Version 4.2.0 -  RELEASE  -
|  1> #
|  2> # TMB01_R1 TPSS-D3BJ/Def2-TZVPPD
|  3> #
|  4> ! tpss d3bj def2-tzvppd def2/j grid4 nofinalgrid
|  5>
|  6> *xyz 0 1
|  7> Zr      -0.000671    0.112924   -0.223454
|  8> C       -2.181938   -0.834851   -1.042825
|  9> C       -1.643164   -1.771750   -0.135830
| 10> C       -2.502306    0.332733   -0.316676
| 11> H       -1.308937   -2.768103   -0.380464
| 12> C       -1.636664   -1.184419    1.151214
| 13> H       -2.895434    1.248967   -0.729119
| 14> C       -2.175001    0.113493    1.036510
| 15> H       -1.306352   -1.655857    2.064126
| 16> H       -2.282924    0.831022    1.835850
| 17> C        1.600796   -1.794999   -0.006343
| 18> C        2.125532   -0.971960   -1.023204
| 19> C        1.653632   -1.076274    1.213076
| 20> H        2.228565   -1.232630   -2.063673
| 21> C        2.505388    0.254502   -0.432287
| 22> H        1.350619   -1.442345    2.182051
| 23> C        2.228391    0.183709    0.945544
| 24> H        2.903936    1.111956   -0.952399
| 25> H        2.382975    0.976423    1.661482
| 26> Cl       0.011968    2.512474    0.074703
| 27> H       -0.001250   -0.010619   -2.053074
| 28> H       -2.330784   -0.986753   -2.099038
| 29> H        1.234974   -2.802168   -0.132604
| 30> *
| 31>
| 32> %maxcore 5000
| 33>
| 34> %pal
| 35> nprocs = 24
| 36> end
| 37>
| 38>
| 39>                          ****END OF INPUT****

CARTESIAN COORDINATES (ANGSTROEM)
---------------------------------
  Zr    -0.000671    0.112924   -0.223454
  C     -2.181938   -0.834851   -1.042825
  C     -1.643164   -1.771750   -0.135830
  C     -2.502306    0.332733   -0.316676
  H     -1.308937   -2.768103   -0.380464
  C     -1.636664   -1.184419    1.151214
  H     -2.895434    1.248967   -0.729119
  C     -2.175001    0.113493    1.036510
  H     -1.306352   -1.655857    2.064126
  H     -2.282924    0.831022    1.835850
  C      1.600796   -1.794999   -0.006343
  C      2.125532   -0.971960   -1.023204
  C      1.653632   -1.076274    1.213076
  H      2.228565   -1.232630   -2.063673
  C      2.505388    0.254502   -0.432287
  H      1.350619   -1.442345    2.182051
  C      2.228391    0.183709    0.945544
  H      2.903936    1.111956   -0.952399
  H      2.382975    0.976423    1.661482
  Cl     0.011968    2.512474    0.074703
  H     -0.001250   -0.010619   -2.053074
  H     -2.330784   -0.986753   -2.099038
  H      1.234974   -2.802168   -0.132604

 Total Charge           Charge          ....    0
 Multiplicity           Mult            ....    1
 Number of Electrons    NEL             ....  100
 Basis Dimension        Dim             ....  664

ORBITAL ENERGIES
----------------

  NO   OCC          E(Eh)            E(eV)
   0   2.0000    -100.940926     -2746.7422
   1   2.0000     -10.007911      -272.3291
   2   2.0000     -10.007444      -272.3164
   3   2.0000     -10.005809      -272.2719
   4   2.0000     -10.005693      -272.2688
   5   2.0000     -10.005654      -272.2677
   6   2.0000     -10.005227      -272.2561
   7   2.0000     -10.004730      -272.2425
   8   2.0000     -10.004446      -272.2348
   9   2.0000     -10.000663      -272.1319
  10   2.0000     -10.000430      -272.1255
  11   2.0000      -9.191963      -250.1260
  12   2.0000      -6.965519      -189.5414
  13   2.0000      -6.964651      -189.5178
  14   2.0000      -6.963030      -189.4737
  15   2.0000      -2.020368       -54.9770
  16   2.0000      -1.189534       -32.3689
  17   2.0000      -1.187580       -32.3157
  18   2.0000      -1.178256       -32.0620
  19   2.0000      -0.837709       -22.7952
  20   2.0000      -0.828156       -22.5353
  21   2.0000      -0.703526       -19.1439
  22   2.0000      -0.673085       -18.3156
  23   2.0000      -0.672139       -18.2898
  24   2.0000      -0.671136       -18.2625
  25   2.0000      -0.668292       -18.1852
  26   2.0000      -0.518600       -14.1118
  27   2.0000      -0.514126       -13.9901
  28   2.0000      -0.510927       -13.9030
  29   2.0000      -0.510043       -13.8790
  30   2.0000      -0.503093       -13.6899
  31   2.0000      -0.496766       -13.5177
  32   2.0000      -0.388119       -10.5612
  33   2.0000      -0.374176       -10.1819
  34   2.0000      -0.373741       -10.1700
  35   2.0000      -0.371814       -10.1176
  36   2.0000      -0.371177       -10.1002
  37   2.0000      -0.356198        -9.6926
  38   2.0000      -0.355052        -9.6614
  39   2.0000      -0.354668        -9.6510
  40   2.0000      -0.351857        -9.5745
  41   2.0000      -0.351480        -9.5643
  42   2.0000      -0.292737        -7.9658
  43   2.0000      -0.276493        -7.5238
  44   2.0000      -0.268562        -7.3080
  45   2.0000      -0.251595        -6.8462
  46   2.0000      -0.246112        -6.6971
  47   2.0000      -0.245744        -6.6870
  48   2.0000      -0.228971        -6.2306
  49   2.0000      -0.218565        -5.9474
  50   0.0000      -0.086395        -2.3509
  51   0.0000      -0.035384        -0.9628
  52   0.0000      -0.028199        -0.7673
  53   0.0000      -0.016244        -0.4420
  54   0.0000      -0.014462        -0.3935

MULLIKEN ATOMIC CHARGES
-----------------------
   0 Zr:   -0.082366
   1 C :    0.164166
   2 C :    0.167751
   3 C :    0.076227
   4 H :    0.016231
   5 C :   -0.081062
   6 H :   -0.011881
   7 C :    0.191611
   8 H :   -0.047528
   9 H :   -0.052862
  10 C :    0.231623
  11 C :    0.119805
  12 C :   -0.103871
  13 H :   -0.004922
  14 C :    0.056811
  15 H :   -0.007749
  16 C :    0.172398
  17 H :   -0.033544
  18 H :   -0.034351
  19 Cl:   -0.561873
  20 H :   -0.195543
  21 H :    0.004661
  22 H :    0.016267
Sum of atomic charges:    0.0000000

LOEWDIN ATOMIC CHARGES
----------------------
   0 Zr:    0.351812
   1 C :   -0.062508
   2 C :   -0.051079
   3 C :   -0.068603
   4 H :    0.003265
   5 C :   -0.046690
   6 H :    0.003728
   7 C :   -0.056252
   8 H :    0.003816
   9 H :    0.004234
  10 C :   -0.050538
  11 C :   -0.061012
  12 C :   -0.047859
  13 H :   -0.002229
  14 C :   -0.064775
  15 H :    0.003128
  16 C :   -0.061407
  17 H :    0.006007
  18 H :    0.002010
  19 Cl:    0.211422
  20 H :   -0.016973
  21 H :   -0.002680
  22 H :    0.003186

  Mayer bond orders larger than 0.100000
B(  0-Zr,  1-C ) :   0.3255 B(  0-Zr,  2-C ) :   0.3394 B(  0-Zr,  3-C ) :   0.4111
B(  0-Zr,  5-C ) :   0.4707 B(  0-Zr,  7-C ) :   0.3323 B(  0-Zr, 10-C ) :   0.2800
B(  0-Zr, 11-C ) :   0.3092 B(  0-Zr, 12-C ) :   0.5258 B(  0-Zr, 14-C ) :   0.4125
B(  0-Zr, 16-C ) :   0.3443 B(  0-Zr, 19-Cl) :   0.7253 B(  0-Zr, 20-H ) :   0.9055
B(  1-C ,  2-C ) :   1.0545 B(  1-C ,  3-C ) :   1.0190 B(  1-C , 21-H ) :   1.0596
B(  2-C ,  4-H ) :   1.0823 B(  2-C ,  5-C ) :   0.9631 B(  3-C ,  6-H ) :   1.0517
B(  3-C ,  7-C ) :   1.1153 B(  5-C ,  7-C ) :   0.9952 B(  5-C ,  8-H ) :   1.1834
B(  5-C , 12-C ) :   0.1328 B(  7-C ,  9-H ) :   1.0681 B( 10-C , 11-C ) :   1.0305
B( 10-C , 12-C ) :   0.9488 B( 10-C , 22-H ) :   1.0988 B( 11-C , 13-H ) :   1.0820
B( 11-C , 14-C ) :   1.0640 B( 12-C , 15-H ) :   1.1554 B( 12-C , 16-C ) :   0.9489
B( 14-C , 16-C ) :   1.1360 B( 14-C , 17-H ) :   1.0560 B( 16-C , 18-H ) :   1.0746

Dispersion correction           -0.040659103
FINAL SINGLE POINT ENERGY      -895.381330124608

DIPOLE MOMENT
-------------
                                X             Y             Z
Electronic contribution:     -0.01626      13.14861     -12.56271
Nuclear contribution   :      0.01059     -14.41688      13.08524
                        -----------------------------------------
Total Dipole Moment    :     -0.00567      -1.26827       0.52253
                        -----------------------------------------
Magnitude (a.u.)       :      1.37171
Magnitude (Debye)      :      3.48660

Rotational constants in cm-1:     0.033538     0.025044     0.018059
Rotational constants in MHz :  1005.445647   750.792016   541.402542

                             ****ORCA TERMINATED NORMALLY****
TOTAL RUN TIME: 0 days 0 hours 0 minutes 24 seconds 587 msec
