                         Program Version 4.2.0 -  RELEASE  -
|  1> #
|  2> # TMB06_T1 TPSS-D3BJ/Def2-TZVPPD
|  3> #
|  4> ! tpss d3bj def2-tzvppd def2/j grid4 nofinalgrid
|  5>
|  6> *xyz -2 1
|  7> C       -5.371545   -2.136160    0.336278
|  8> C       -4.697063   -0.763740    0.262018
|  9> O       -4.978822    0.003309   -0.707502
| 10> O       -3.902613   -0.505987    1.212120
| 11> C        2.635057   -0.678655    2.396830
| 12> S        2.063323    1.004526    1.938677
| 13> C        2.314937   -2.581636   -1.299530
| 14> S        0.864820   -2.286095   -0.358137
| 15> C        3.240953   -1.614445   -1.507242
| 16> S        2.972432   -0.000985   -0.910324
| 17> C       -0.891125    2.751712   -1.395439
| 18> S        0.528832    2.543841   -0.360303
| 19> C       -1.489329    1.702419   -2.015371
| 20> S       -0.828634    0.070077   -1.896647
| 21> W        0.627788    0.033115    0.107608
| 22> O       -2.320739    1.386691    1.151938
| 23> C       -0.689027   -0.837880    1.297595
| 24> C       -0.745952    0.472117    1.605961
| 25> H       -4.850130   -2.819358   -0.346804
| 26> H       -5.250819   -2.525653    1.350280
| 27> H        1.778524   -1.298220    2.681124
| 28> H        3.117621   -1.144410    1.536216
| 29> H       -3.029141    0.618126    1.100277
| 30> H       -2.171098    1.699602    0.245945
| 31> H       -1.140104   -1.782909    1.572954
| 32> H       -0.640990    1.084034    2.487860
| 33> H       -1.256518    3.767648   -1.529996
| 34> H       -2.404891    1.822493   -2.590760
| 35> H        3.371580   -0.608085    3.204035
| 36> H        2.423780   -3.583247   -1.710229
| 37> H        4.191166   -1.850203   -1.981855
| 38> H       -6.431678   -2.086675    0.066661
| 39> *
| 40>
| 41> %maxcore 5000
| 42>
| 43> %pal
| 44> nprocs = 24
| 45> end
| 46>
| 47>
| 48>                          ****END OF INPUT****

CARTESIAN COORDINATES (ANGSTROEM)
---------------------------------
  C     -5.371545   -2.136160    0.336278
  C     -4.697063   -0.763740    0.262018
  O     -4.978822    0.003309   -0.707502
  O     -3.902613   -0.505987    1.212120
  C      2.635057   -0.678655    2.396830
  S      2.063323    1.004526    1.938677
  C      2.314937   -2.581636   -1.299530
  S      0.864820   -2.286095   -0.358137
  C      3.240953   -1.614445   -1.507242
  S      2.972432   -0.000985   -0.910324
  C     -0.891125    2.751712   -1.395439
  S      0.528832    2.543841   -0.360303
  C     -1.489329    1.702419   -2.015371
  S     -0.828634    0.070077   -1.896647
  W      0.627788    0.033115    0.107608
  O     -2.320739    1.386691    1.151938
  C     -0.689027   -0.837880    1.297595
  C     -0.745952    0.472117    1.605961
  H     -4.850130   -2.819358   -0.346804
  H     -5.250819   -2.525653    1.350280
  H      1.778524   -1.298220    2.681124
  H      3.117621   -1.144410    1.536216
  H     -3.029141    0.618126    1.100277
  H     -2.171098    1.699602    0.245945
  H     -1.140104   -1.782909    1.572954
  H     -0.640990    1.084034    2.487860
  H     -1.256518    3.767648   -1.529996
  H     -2.404891    1.822493   -2.590760
  H      3.371580   -0.608085    3.204035
  H      2.423780   -3.583247   -1.710229
  H      4.191166   -1.850203   -1.981855
  H     -6.431678   -2.086675    0.066661

 Total Charge           Charge          ....   -2
 Multiplicity           Mult            ....    1
 Number of Electrons    NEL             ....  188
 Basis Dimension        Dim             .... 1005

ORBITAL ENERGIES
----------------

  NO   OCC          E(Eh)            E(eV)
   0   2.0000     -88.125580     -2398.0190
   1   2.0000     -88.110068     -2397.5969
   2   2.0000     -88.103402     -2397.4154
   3   2.0000     -88.095532     -2397.2013
   4   2.0000     -88.090390     -2397.0614
   5   2.0000     -18.649685      -507.4837
   6   2.0000     -18.608603      -506.3658
   7   2.0000     -18.592465      -505.9267
   8   2.0000      -9.840008      -267.7602
   9   2.0000      -9.799078      -266.6465
  10   2.0000      -9.791358      -266.4364
  11   2.0000      -9.787132      -266.3214
  12   2.0000      -9.783347      -266.2184
  13   2.0000      -9.779720      -266.1197
  14   2.0000      -9.779392      -266.1108
  15   2.0000      -9.772197      -265.9150
  16   2.0000      -9.746253      -265.2090
  17   2.0000      -7.505831      -204.2440
  18   2.0000      -7.490772      -203.8343
  19   2.0000      -7.483858      -203.6461
  20   2.0000      -7.476069      -203.4342
  21   2.0000      -7.471490      -203.3096
  22   2.0000      -5.485353      -149.2640
  23   2.0000      -5.481372      -149.1557
  24   2.0000      -5.479070      -149.0931
  25   2.0000      -5.470632      -148.8635
  26   2.0000      -5.465815      -148.7324
  27   2.0000      -5.464063      -148.6847
  28   2.0000      -5.463559      -148.6710
  29   2.0000      -5.459171      -148.5516
  30   2.0000      -5.457031      -148.4934
  31   2.0000      -5.456016      -148.4657
  32   2.0000      -5.452286      -148.3642
  33   2.0000      -5.451113      -148.3323
  34   2.0000      -5.449266      -148.2821
  35   2.0000      -5.447359      -148.2302
  36   2.0000      -5.442816      -148.1066
  37   2.0000      -2.646746       -72.0216
  38   2.0000      -1.325925       -36.0802
  39   2.0000      -1.319894       -35.9161
  40   2.0000      -1.317593       -35.8535
  41   2.0000      -0.732012       -19.9190
  42   2.0000      -0.700800       -19.0697
  43   2.0000      -0.639699       -17.4071
  44   2.0000      -0.539028       -14.6677
  45   2.0000      -0.518700       -14.1146
  46   2.0000      -0.477451       -12.9921
  47   2.0000      -0.462943       -12.5973
  48   2.0000      -0.453155       -12.3310
  49   2.0000      -0.444596       -12.0981
  50   2.0000      -0.424108       -11.5406
  51   2.0000      -0.381297       -10.3756
  52   2.0000      -0.362296        -9.8586
  53   2.0000      -0.335458        -9.1283
  54   2.0000      -0.285268        -7.7625
  55   2.0000      -0.271621        -7.3912
  56   2.0000      -0.267607        -7.2820
  57   2.0000      -0.254881        -6.9357
  58   2.0000      -0.220434        -5.9983
  59   2.0000      -0.217773        -5.9259
  60   2.0000      -0.201997        -5.4966
  61   2.0000      -0.201158        -5.4738
  62   2.0000      -0.180754        -4.9186
  63   2.0000      -0.178574        -4.8592
  64   2.0000      -0.170321        -4.6347
  65   2.0000      -0.165925        -4.5151
  66   2.0000      -0.156716        -4.2645
  67   2.0000      -0.154509        -4.2044
  68   2.0000      -0.130874        -3.5613
  69   2.0000      -0.123685        -3.3656
  70   2.0000      -0.115811        -3.1514
  71   2.0000      -0.103666        -2.8209
  72   2.0000      -0.100849        -2.7443
  73   2.0000      -0.095791        -2.6066
  74   2.0000      -0.088850        -2.4177
  75   2.0000      -0.086306        -2.3485
  76   2.0000      -0.073225        -1.9926
  77   2.0000      -0.066195        -1.8013
  78   2.0000      -0.055243        -1.5032
  79   2.0000      -0.039284        -1.0690
  80   2.0000      -0.034570        -0.9407
  81   2.0000      -0.031428        -0.8552
  82   2.0000      -0.014795        -0.4026
  83   2.0000      -0.012847        -0.3496
  84   2.0000       0.001286         0.0350
  85   2.0000       0.003868         0.1053
  86   2.0000       0.009245         0.2516
  87   2.0000       0.010355         0.2818
  88   2.0000       0.015805         0.4301
  89   2.0000       0.027409         0.7458
  90   2.0000       0.033575         0.9136
  91   2.0000       0.038425         1.0456
  92   2.0000       0.054618         1.4862
  93   2.0000       0.070033         1.9057
  94   0.0000       0.118554         3.2260
  95   0.0000       0.156684         4.2636
  96   0.0000       0.158532         4.3139
  97   0.0000       0.169492         4.6121
  98   0.0000       0.172737         4.7004

MULLIKEN ATOMIC CHARGES
-----------------------
   0 C :   -0.332186
   1 C :    0.796581
   2 O :   -0.808381
   3 O :   -0.704163
   4 C :   -0.051977
   5 S :   -0.633908
   6 C :    0.172808
   7 S :   -0.539284
   8 C :    0.127309
   9 S :   -0.478126
  10 C :    0.218708
  11 S :   -0.544824
  12 C :    0.121881
  13 S :   -0.489241
  14 W :   -0.026417
  15 O :   -0.685634
  16 C :   -0.121968
  17 C :    0.666423
  18 H :    0.006803
  19 H :    0.098317
  20 H :    0.156895
  21 H :    0.119504
  22 H :    0.566546
  23 H :    0.290064
  24 H :   -0.113321
  25 H :   -0.138730
  26 H :    0.035731
  27 H :    0.024232
  28 H :    0.102721
  29 H :    0.067103
  30 H :    0.024743
  31 H :    0.071793
Sum of atomic charges:   -2.0000000

LOEWDIN ATOMIC CHARGES
----------------------
   0 C :    0.164681
   1 C :   -0.646366
   2 O :   -0.061677
   3 O :    0.048807
   4 C :   -0.311353
   5 S :    0.414392
   6 C :   -0.560958
   7 S :    0.616293
   8 C :   -0.592511
   9 S :    0.508580
  10 C :   -0.596463
  11 S :    0.491212
  12 C :   -0.578299
  13 S :    0.548543
  14 W :    0.083966
  15 O :    0.347982
  16 C :   -0.233746
  17 C :   -0.247212
  18 H :   -0.025761
  19 H :   -0.038846
  20 H :   -0.091938
  21 H :   -0.129948
  22 H :   -0.285001
  23 H :   -0.228640
  24 H :   -0.074254
  25 H :   -0.059452
  26 H :   -0.082424
  27 H :   -0.071807
  28 H :   -0.092953
  29 H :   -0.092359
  30 H :   -0.085976
  31 H :   -0.036513

  Mayer bond orders larger than 0.100000
B(  0-C ,  1-C ) :   0.9720 B(  0-C , 18-H ) :   1.0092 B(  0-C , 19-H ) :   1.0085
B(  0-C , 31-H ) :   1.0120 B(  1-C ,  2-O ) :   1.2212 B(  1-C ,  3-O ) :   1.1804
B(  3-O , 22-H ) :   0.1043 B(  4-C ,  5-S ) :   0.7319 B(  4-C , 20-H ) :   0.9924
B(  4-C , 21-H ) :   0.9400 B(  4-C , 28-H ) :   0.9718 B(  5-S , 14-W ) :   0.8311
B(  6-C ,  7-S ) :   0.8583 B(  6-C ,  8-C ) :   1.4699 B(  6-C , 29-H ) :   1.0761
B(  7-S ,  8-C ) :   0.1175 B(  7-S , 14-W ) :   1.0539 B(  8-C ,  9-S ) :   0.9255
B(  8-C , 30-H ) :   1.1171 B(  9-S , 14-W ) :   0.9074 B( 10-C , 11-S ) :   0.9217
B( 10-C , 12-C ) :   1.2823 B( 10-C , 26-H ) :   1.1303 B( 10-C , 27-H ) :  -0.1591
B( 11-S , 14-W ) :   0.8804 B( 12-C , 13-S ) :   0.9374 B( 12-C , 26-H ) :  -0.1091
B( 12-C , 27-H ) :   1.1678 B( 13-S , 14-W ) :   0.9992 B( 14-W , 15-O ) :   0.1058
B( 14-W , 16-C ) :   1.2663 B( 14-W , 17-C ) :   0.8469 B( 15-O , 16-C ) :   0.1191
B( 15-O , 17-C ) :   0.1280 B( 15-O , 22-H ) :   0.4295 B( 15-O , 23-H ) :   0.8050
B( 16-C , 17-C ) :   1.0094 B( 16-C , 24-H ) :   0.9814 B( 17-C , 25-H ) :   1.0859

Dispersion correction           -0.074908717
FINAL SINGLE POINT ENERGY     -2635.884727935324

DIPOLE MOMENT
-------------
                                X             Y             Z
Electronic contribution:     97.92438       9.45051      10.80588
Nuclear contribution   :    -95.08812     -10.49452     -10.64317
                        -----------------------------------------
Total Dipole Moment    :      2.83626      -1.04401       0.16271
                        -----------------------------------------
Magnitude (a.u.)       :      3.02668
Magnitude (Debye)      :      7.69320

Rotational constants in cm-1:     0.011727     0.005648     0.005281
Rotational constants in MHz :   351.552196   169.313101   158.324155

                             ****ORCA TERMINATED NORMALLY****
TOTAL RUN TIME: 0 days 0 hours 0 minutes 41 seconds 192 msec
