                         Program Version 4.2.0 -  RELEASE  -
|  1> #
|  2> # TMB09_T1 TPSS-D3BJ/Def2-TZVPPD
|  3> #
|  4> ! tpss d3bj def2-tzvppd def2/j grid4 nofinalgrid
|  5>
|  6> *xyz 0 1
|  7> Mo       0.144293   -0.018278    0.187956
|  8> C       -1.882744   -1.070987   -0.485243
|  9> C       -1.076439    2.809087   -0.488683
| 10> H       -1.056313    3.572787    0.310053
| 11> H       -2.117393    2.730299   -0.852689
| 12> H       -0.453643    3.172151   -1.326804
| 13> C        1.996084   -2.290843   -0.946924
| 14> C        2.556730    1.794509   -0.039409
| 15> N       -0.610025    1.553803    0.004719
| 16> O        1.936938    0.565567   -0.322724
| 17> O        0.833025   -1.766355   -0.360705
| 18> H        1.780871   -2.689531   -1.957376
| 19> H        2.380311   -3.126092   -0.331250
| 20> H        2.779790   -1.516765   -1.025980
| 21> H        3.470410    1.892833   -0.654307
| 22> H        2.854397    1.863620    1.026056
| 23> H        1.897937    2.657406   -0.259961
| 24> C       -0.134457   -0.284271    2.087106
| 25> C       -1.864166   -1.358035    0.884748
| 26> H        0.299474   -1.167843    2.578202
| 27> H       -0.661177    0.399181    2.762773
| 28> H       -1.449974   -2.303708    1.234049
| 29> H       -2.567349   -0.858578    1.555883
| 30> C       -2.930318   -0.174171   -1.105185
| 31> H       -2.557155    0.344677   -2.001613
| 32> H       -3.799822   -0.779414   -1.421129
| 33> H       -3.293476    0.582538   -0.393193
| 34> H       -1.444854   -1.827941   -1.140932
| 35> *
| 36>
| 37> %maxcore 5000
| 38>
| 39> %pal
| 40> nprocs = 24
| 41> end
| 42>
| 43>
| 44>                          ****END OF INPUT****

CARTESIAN COORDINATES (ANGSTROEM)
---------------------------------
  Mo     0.144293   -0.018278    0.187956
  C     -1.882744   -1.070987   -0.485243
  C     -1.076439    2.809087   -0.488683
  H     -1.056313    3.572787    0.310053
  H     -2.117393    2.730299   -0.852689
  H     -0.453643    3.172151   -1.326804
  C      1.996084   -2.290843   -0.946924
  C      2.556730    1.794509   -0.039409
  N     -0.610025    1.553803    0.004719
  O      1.936938    0.565567   -0.322724
  O      0.833025   -1.766355   -0.360705
  H      1.780871   -2.689531   -1.957376
  H      2.380311   -3.126092   -0.331250
  H      2.779790   -1.516765   -1.025980
  H      3.470410    1.892833   -0.654307
  H      2.854397    1.863620    1.026056
  H      1.897937    2.657406   -0.259961
  C     -0.134457   -0.284271    2.087106
  C     -1.864166   -1.358035    0.884748
  H      0.299474   -1.167843    2.578202
  H     -0.661177    0.399181    2.762773
  H     -1.449974   -2.303708    1.234049
  H     -2.567349   -0.858578    1.555883
  C     -2.930318   -0.174171   -1.105185
  H     -2.557155    0.344677   -2.001613
  H     -3.799822   -0.779414   -1.421129
  H     -3.293476    0.582538   -0.393193
  H     -1.444854   -1.827941   -1.140932

 Total Charge           Charge          ....    0
 Multiplicity           Mult            ....    1
 Number of Electrons    NEL             ....   96
 Basis Dimension        Dim             ....  721

ORBITAL ENERGIES
----------------

  NO   OCC          E(Eh)            E(eV)
   0   2.0000     -18.850371      -512.9447
   1   2.0000     -18.849515      -512.9214
   2   2.0000     -14.092337      -383.4720
   3   2.0000     -10.022449      -272.7247
   4   2.0000     -10.016323      -272.5580
   5   2.0000     -10.013215      -272.4734
   6   2.0000     -10.008709      -272.3508
   7   2.0000      -9.998563      -272.0747
   8   2.0000      -9.994996      -271.9777
   9   2.0000      -9.991009      -271.8692
  10   2.0000      -2.491266       -67.7908
  11   2.0000      -1.530082       -41.6356
  12   2.0000      -1.520292       -41.3692
  13   2.0000      -1.513768       -41.1917
  14   2.0000      -0.894012       -24.3273
  15   2.0000      -0.886964       -24.1355
  16   2.0000      -0.779596       -21.2139
  17   2.0000      -0.739343       -20.1185
  18   2.0000      -0.646064       -17.5803
  19   2.0000      -0.598538       -16.2871
  20   2.0000      -0.596526       -16.2323
  21   2.0000      -0.591635       -16.0992
  22   2.0000      -0.574002       -15.6194
  23   2.0000      -0.522127       -14.2078
  24   2.0000      -0.438437       -11.9305
  25   2.0000      -0.412489       -11.2244
  26   2.0000      -0.405473       -11.0335
  27   2.0000      -0.402561       -10.9542
  28   2.0000      -0.399979       -10.8840
  29   2.0000      -0.394486       -10.7345
  30   2.0000      -0.386437       -10.5155
  31   2.0000      -0.382885       -10.4188
  32   2.0000      -0.377053       -10.2601
  33   2.0000      -0.373117       -10.1530
  34   2.0000      -0.371815       -10.1176
  35   2.0000      -0.355843        -9.6830
  36   2.0000      -0.350941        -9.5496
  37   2.0000      -0.340890        -9.2761
  38   2.0000      -0.319221        -8.6864
  39   2.0000      -0.305312        -8.3080
  40   2.0000      -0.279771        -7.6129
  41   2.0000      -0.258904        -7.0451
  42   2.0000      -0.250762        -6.8236
  43   2.0000      -0.234063        -6.3692
  44   2.0000      -0.225344        -6.1319
  45   2.0000      -0.217437        -5.9167
  46   2.0000      -0.208555        -5.6751
  47   2.0000      -0.187769        -5.1094
  48   0.0000      -0.065375        -1.7789
  49   0.0000      -0.063015        -1.7147
  50   0.0000      -0.050123        -1.3639
  51   0.0000      -0.029893        -0.8134
  52   0.0000      -0.014107        -0.3839

MULLIKEN ATOMIC CHARGES
-----------------------
   0 Mo:    0.804769
   1 C :    0.147056
   2 C :   -0.078048
   3 H :    0.073518
   4 H :    0.058686
   5 H :    0.104052
   6 C :   -0.050508
   7 C :   -0.000661
   8 N :   -0.834762
   9 O :   -0.706644
  10 O :   -0.583662
  11 H :    0.066629
  12 H :    0.056359
  13 H :    0.083513
  14 H :    0.054842
  15 H :    0.031675
  16 H :    0.071782
  17 C :    0.209290
  18 C :    0.139415
  19 H :    0.100039
  20 H :    0.077701
  21 H :    0.133717
  22 H :    0.111909
  23 C :   -0.546360
  24 H :    0.080181
  25 H :    0.047823
  26 H :    0.094725
  27 H :    0.252965
Sum of atomic charges:   -0.0000000

LOEWDIN ATOMIC CHARGES
----------------------
   0 Mo:    1.100073
   1 C :   -0.195861
   2 C :    0.020680
   3 H :   -0.008646
   4 H :   -0.021042
   5 H :   -0.009853
   6 C :    0.009981
   7 C :   -0.011856
   8 N :   -0.102233
   9 O :   -0.317126
  10 O :   -0.304728
  11 H :   -0.007867
  12 H :   -0.006390
  13 H :   -0.024342
  14 H :   -0.008006
  15 H :   -0.009398
  16 H :   -0.026085
  17 C :    0.063406
  18 C :    0.063444
  19 H :   -0.092690
  20 H :   -0.098319
  21 H :   -0.022891
  22 H :   -0.015416
  23 C :    0.093469
  24 H :   -0.019147
  25 H :   -0.010886
  26 H :   -0.020415
  27 H :   -0.017855

  Mayer bond orders larger than 0.100000
B(  0-Mo,  1-C ) :   0.7053 B(  0-Mo,  2-C ) :   0.1400 B(  0-Mo,  8-N ) :   1.2486
B(  0-Mo,  9-O ) :   0.6995 B(  0-Mo, 10-O ) :   0.7900 B(  0-Mo, 17-C ) :   1.5689
B(  0-Mo, 18-C ) :   0.3265 B(  0-Mo, 23-C ) :   0.1557 B(  1-C , 18-C ) :   0.9195
B(  1-C , 23-C ) :   1.1478 B(  1-C , 27-H ) :   0.8946 B(  2-C ,  3-H ) :   0.9702
B(  2-C ,  4-H ) :   0.9994 B(  2-C ,  5-H ) :   0.9673 B(  2-C ,  8-N ) :   0.6585
B(  6-C , 10-O ) :   0.9446 B(  6-C , 11-H ) :   0.9893 B(  6-C , 12-H ) :   0.9848
B(  6-C , 13-H ) :   0.9901 B(  7-C ,  9-O ) :   0.9525 B(  7-C , 14-H ) :   0.9880
B(  7-C , 15-H ) :   0.9880 B(  7-C , 16-H ) :   0.9842 B( 17-C , 18-C ) :   0.2648
B( 17-C , 19-H ) :   1.0149 B( 17-C , 20-H ) :   1.0201 B( 18-C , 21-H ) :   1.0422
B( 18-C , 22-H ) :   1.0585 B( 23-C , 24-H ) :   0.9712 B( 23-C , 25-H ) :   1.0124
B( 23-C , 26-H ) :   0.9704

Dispersion correction           -0.040523355
FINAL SINGLE POINT ENERGY      -550.744386075530

DIPOLE MOMENT
-------------
                                X             Y             Z
Electronic contribution:     10.88352      -2.92641      13.12497
Nuclear contribution   :    -11.80214       3.30573     -13.02417
                        -----------------------------------------
Total Dipole Moment    :     -0.91862       0.37932       0.10079
                        -----------------------------------------
Magnitude (a.u.)       :      0.99895
Magnitude (Debye)      :      2.53912

Rotational constants in cm-1:     0.031577     0.026703     0.018834
Rotational constants in MHz :   946.666634   800.534327   564.625423

                             ****ORCA TERMINATED NORMALLY****
TOTAL RUN TIME: 0 days 0 hours 0 minutes 24 seconds 381 msec
