                         Program Version 4.2.0 -  RELEASE  -
|  1> #
|  2> # TMB08_T1 TPSS-D3BJ/Def2-TZVPPD
|  3> #
|  4> ! tpss d3bj def2-tzvppd def2/j grid4 nofinalgrid
|  5>
|  6> *xyz -1 1
|  7> O       -0.864683   -0.641223    1.501083
|  8> Mo       0.288309   -0.030923   -0.005993
|  9> O       -1.184159   -0.828813   -0.891579
| 10> S        2.210721   -0.462566    1.360243
| 11> C        3.288131   -1.501862    0.490518
| 12> C        2.967024   -1.951648   -0.740634
| 13> S        1.453819   -1.539049   -1.466752
| 14> S        0.162904    2.082815    1.150192
| 15> C        0.198674    3.373932   -0.002877
| 16> C        0.341525    3.101047   -1.316307
| 17> S        0.442237    1.474962   -1.896418
| 18> S       -2.702756   -1.277235    0.090908
| 19> C       -3.341924    0.299743    0.636465
| 20> H       -3.337931    0.314090    1.732942
| 21> H       -2.648387    1.079744    0.273451
| 22> H       -4.358042    0.459892    0.247281
| 23> C       -3.587204   -1.408361   -1.466934
| 24> H       -3.173718   -2.281309   -1.989593
| 25> H       -4.662596   -1.555426   -1.282985
| 26> H       -3.398030   -0.511824   -2.074907
| 27> C       -0.765264   -0.491871    2.877457
| 28> H       -0.827293    0.572940    3.181404
| 29> H       -1.595209   -1.039646    3.369476
| 30> H        0.192972   -0.897436    3.256104
| 31> H        3.640777   -2.597035   -1.314559
| 32> H        4.229728   -1.767232    0.982509
| 33> H        0.401774    3.897233   -2.066529
| 34> H        0.141166    4.396366    0.384198
| 35> *
| 36>
| 37> %maxcore 5000
| 38>
| 39> %pal
| 40> nprocs = 24
| 41> end
| 42>
| 43>
| 44>                          ****END OF INPUT****

CARTESIAN COORDINATES (ANGSTROEM)
---------------------------------
  O     -0.864683   -0.641223    1.501083
  Mo     0.288309   -0.030923   -0.005993
  O     -1.184159   -0.828813   -0.891579
  S      2.210721   -0.462566    1.360243
  C      3.288131   -1.501862    0.490518
  C      2.967024   -1.951648   -0.740634
  S      1.453819   -1.539049   -1.466752
  S      0.162904    2.082815    1.150192
  C      0.198674    3.373932   -0.002877
  C      0.341525    3.101047   -1.316307
  S      0.442237    1.474962   -1.896418
  S     -2.702756   -1.277235    0.090908
  C     -3.341924    0.299743    0.636465
  H     -3.337931    0.314090    1.732942
  H     -2.648387    1.079744    0.273451
  H     -4.358042    0.459892    0.247281
  C     -3.587204   -1.408361   -1.466934
  H     -3.173718   -2.281309   -1.989593
  H     -4.662596   -1.555426   -1.282985
  H     -3.398030   -0.511824   -2.074907
  C     -0.765264   -0.491871    2.877457
  H     -0.827293    0.572940    3.181404
  H     -1.595209   -1.039646    3.369476
  H      0.192972   -0.897436    3.256104
  H      3.640777   -2.597035   -1.314559
  H      4.229728   -1.767232    0.982509
  H      0.401774    3.897233   -2.066529
  H      0.141166    4.396366    0.384198

 Total Charge           Charge          ....   -1
 Multiplicity           Mult            ....    1
 Number of Electrons    NEL             ....  166
 Basis Dimension        Dim             ....  871

ORBITAL ENERGIES
----------------

  NO   OCC          E(Eh)            E(eV)
   0   2.0000     -88.307472     -2402.9685
   1   2.0000     -88.196727     -2399.9549
   2   2.0000     -88.195419     -2399.9194
   3   2.0000     -88.194287     -2399.8886
   4   2.0000     -88.192098     -2399.8290
   5   2.0000     -18.755074      -510.3515
   6   2.0000     -18.748921      -510.1841
   7   2.0000      -9.917371      -269.8654
   8   2.0000      -9.916856      -269.8514
   9   2.0000      -9.907249      -269.5900
  10   2.0000      -9.869069      -268.5510
  11   2.0000      -9.868342      -268.5312
  12   2.0000      -9.867860      -268.5181
  13   2.0000      -9.867764      -268.5155
  14   2.0000      -7.681321      -209.0194
  15   2.0000      -7.578185      -206.2129
  16   2.0000      -7.576782      -206.1747
  17   2.0000      -7.575430      -206.1379
  18   2.0000      -7.573140      -206.0756
  19   2.0000      -5.660631      -154.0336
  20   2.0000      -5.658611      -153.9786
  21   2.0000      -5.654478      -153.8662
  22   2.0000      -5.557318      -151.2223
  23   2.0000      -5.555942      -151.1849
  24   2.0000      -5.554732      -151.1520
  25   2.0000      -5.552960      -151.1037
  26   2.0000      -5.552533      -151.0921
  27   2.0000      -5.552261      -151.0847
  28   2.0000      -5.551655      -151.0682
  29   2.0000      -5.550745      -151.0434
  30   2.0000      -5.550550      -151.0381
  31   2.0000      -5.549058      -150.9975
  32   2.0000      -5.547719      -150.9611
  33   2.0000      -5.547229      -150.9478
  34   2.0000      -2.349488       -63.9328
  35   2.0000      -1.385861       -37.7112
  36   2.0000      -1.378390       -37.5079
  37   2.0000      -1.368607       -37.2417
  38   2.0000      -0.795910       -21.6578
  39   2.0000      -0.749931       -20.4067
  40   2.0000      -0.645719       -17.5709
  41   2.0000      -0.618923       -16.8417
  42   2.0000      -0.616902       -16.7868
  43   2.0000      -0.565071       -15.3764
  44   2.0000      -0.526019       -14.3137
  45   2.0000      -0.523452       -14.2439
  46   2.0000      -0.490401       -13.3445
  47   2.0000      -0.466623       -12.6975
  48   2.0000      -0.458872       -12.4865
  49   2.0000      -0.449191       -12.2231
  50   2.0000      -0.348814        -9.4917
  51   2.0000      -0.344172        -9.3654
  52   2.0000      -0.327583        -8.9140
  53   2.0000      -0.320911        -8.7324
  54   2.0000      -0.311445        -8.4748
  55   2.0000      -0.299127        -8.1397
  56   2.0000      -0.295774        -8.0484
  57   2.0000      -0.294436        -8.0120
  58   2.0000      -0.282785        -7.6950
  59   2.0000      -0.280642        -7.6367
  60   2.0000      -0.272673        -7.4198
  61   2.0000      -0.253130        -6.8880
  62   2.0000      -0.240916        -6.5557
  63   2.0000      -0.220960        -6.0126
  64   2.0000      -0.207779        -5.6540
  65   2.0000      -0.196176        -5.3382
  66   2.0000      -0.190430        -5.1819
  67   2.0000      -0.180789        -4.9195
  68   2.0000      -0.178637        -4.8610
  69   2.0000      -0.171198        -4.6585
  70   2.0000      -0.155837        -4.2406
  71   2.0000      -0.142337        -3.8732
  72   2.0000      -0.131246        -3.5714
  73   2.0000      -0.126838        -3.4515
  74   2.0000      -0.124066        -3.3760
  75   2.0000      -0.109481        -2.9791
  76   2.0000      -0.098992        -2.6937
  77   2.0000      -0.087454        -2.3798
  78   2.0000      -0.082240        -2.2379
  79   2.0000      -0.078223        -2.1286
  80   2.0000      -0.057319        -1.5597
  81   2.0000      -0.025970        -0.7067
  82   2.0000      -0.020963        -0.5704
  83   0.0000       0.044618         1.2141
  84   0.0000       0.051694         1.4067
  85   0.0000       0.054984         1.4962
  86   0.0000       0.069690         1.8964
  87   0.0000       0.084695         2.3047

MULLIKEN ATOMIC CHARGES
-----------------------
   0 O :   -0.396451
   1 Mo:    0.121001
   2 O :   -0.379360
   3 S :   -0.434101
   4 C :    0.145698
   5 C :    0.229731
   6 S :   -0.432891
   7 S :   -0.488689
   8 C :    0.144779
   9 C :    0.177151
  10 S :   -0.387381
  11 S :   -0.051870
  12 C :    0.042889
  13 H :    0.087876
  14 H :    0.019301
  15 H :    0.139093
  16 C :   -0.128400
  17 H :    0.090741
  18 H :    0.109858
  19 H :    0.082891
  20 C :   -0.144271
  21 H :    0.090766
  22 H :    0.069247
  23 H :    0.059112
  24 H :    0.053040
  25 H :    0.064183
  26 H :    0.052640
  27 H :    0.063416
Sum of atomic charges:   -1.0000000

LOEWDIN ATOMIC CHARGES
----------------------
   0 O :   -0.507772
   1 Mo:    0.294197
   2 O :   -0.680037
   3 S :    0.568766
   4 C :   -0.600021
   5 C :   -0.603689
   6 S :    0.560493
   7 S :    0.571361
   8 C :   -0.602637
   9 C :   -0.619366
  10 S :    0.539675
  11 S :    0.993395
  12 C :   -0.071076
  13 H :   -0.049569
  14 H :   -0.047806
  15 H :   -0.047388
  16 C :   -0.094648
  17 H :   -0.047051
  18 H :   -0.053110
  19 H :   -0.037523
  20 C :   -0.073135
  21 H :   -0.043931
  22 H :   -0.007630
  23 H :   -0.040065
  24 H :   -0.074409
  25 H :   -0.075196
  26 H :   -0.075538
  27 H :   -0.076290

  Mayer bond orders larger than 0.100000
B(  0-O ,  1-Mo) :   0.4945 B(  0-O , 11-S ) :   0.2114 B(  0-O , 20-C ) :   1.0524
B(  1-Mo,  2-O ) :   0.9199 B(  1-Mo,  3-S ) :   1.3005 B(  1-Mo,  6-S ) :   1.3246
B(  1-Mo,  7-S ) :   1.0827 B(  1-Mo, 10-S ) :   1.1594 B(  1-Mo, 11-S ) :   0.3511
B(  2-O ,  6-S ) :  -0.1101 B(  2-O , 11-S ) :   0.6620 B(  3-S ,  4-C ) :   0.8359
B(  4-C ,  5-C ) :   1.6796 B(  4-C , 25-H ) :   1.0599 B(  5-C ,  6-S ) :   0.8346
B(  5-C , 24-H ) :   1.0601 B(  7-S ,  8-C ) :   0.8655 B(  8-C ,  9-C ) :   1.6709
B(  8-C , 27-H ) :   1.0639 B(  9-C , 10-S ) :   0.8700 B(  9-C , 26-H ) :   1.0372
B( 11-S , 12-C ) :   0.7014 B( 11-S , 14-H ) :   0.1424 B( 11-S , 16-C ) :   0.8583
B( 12-C , 13-H ) :   0.9868 B( 12-C , 14-H ) :   0.9652 B( 12-C , 15-H ) :   0.9589
B( 16-C , 17-H ) :   0.9666 B( 16-C , 18-H ) :   0.9762 B( 16-C , 19-H ) :   0.9969
B( 20-C , 21-H ) :   0.9612 B( 20-C , 22-H ) :   0.9491 B( 20-C , 23-H ) :   0.9802

Dispersion correction           -0.067455195
FINAL SINGLE POINT ENERGY     -2484.890659474877

DIPOLE MOMENT
-------------
                                X             Y             Z
Electronic contribution:     28.19684      -2.36686      -3.79503
Nuclear contribution   :    -30.46451       1.96400       4.17914
                        -----------------------------------------
Total Dipole Moment    :     -2.26767      -0.40286       0.38411
                        -----------------------------------------
Magnitude (a.u.)       :      2.33499
Magnitude (Debye)      :      5.93507

Rotational constants in cm-1:     0.012781     0.009890     0.008747
Rotational constants in MHz :   383.176431   296.486696   262.216571

                             ****ORCA TERMINATED NORMALLY****
TOTAL RUN TIME: 0 days 0 hours 0 minutes 38 seconds 386 msec
