                         Program Version 4.2.0 -  RELEASE  -
|  1> #
|  2> # TMB06_C1 TPSS-D3BJ/Def2-TZVPPD
|  3> #
|  4> ! tpss d3bj def2-tzvppd def2/j grid4 nofinalgrid
|  5>
|  6> *xyz -2 1
|  7> C       -4.922177    0.231539    2.107663
|  8> C       -4.446966   -0.260950    0.727306
|  9> O       -4.786048   -1.445661    0.381045
| 10> O       -3.774664    0.534657    0.034272
| 11> C        2.853834    2.539483    0.111094
| 12> S        1.699014    2.002949   -1.213407
| 13> C        2.621388   -0.654255    2.558361
| 14> S        1.079319    0.109893    2.243750
| 15> C        3.475179   -0.966107    1.545638
| 16> S        3.017258   -0.732048   -0.112289
| 17> C       -0.719852   -2.060810   -2.434513
| 18> S        0.476784   -0.759924   -2.482057
| 19> C       -1.165423   -2.576996   -1.263023
| 20> S       -0.426778   -2.115489    0.280596
| 21> W        0.581769    0.074169   -0.056710
| 22> O       -3.686516    3.100880   -0.970074
| 23> C       -0.958024    1.126222    0.768552
| 24> C       -1.050846    1.201510   -0.527136
| 25> H       -4.399031   -0.338057    2.886550
| 26> H       -4.651123    1.285347    2.215183
| 27> H        2.286624    2.922259    0.966567
| 28> H        3.439558    1.684807    0.443645
| 29> H       -3.719098    2.271105   -0.448699
| 30> H       -4.432659    3.004669   -1.574445
| 31> H       -1.423366    1.443209    1.691261
| 32> H       -1.628538    1.662411   -1.315772
| 33> H       -1.080680   -2.444086   -3.386693
| 34> H       -2.006521   -3.265324   -1.212989
| 35> H        3.558044    3.288012   -0.266819
| 36> H        2.852091   -0.869929    3.599516
| 37> H        4.480661   -1.317935    1.766923
| 38> H       -6.001258    0.102048    2.241238
| 39> *
| 40>
| 41> %maxcore 5000
| 42>
| 43> %pal
| 44> nprocs = 24
| 45> end
| 46>
| 47>
| 48>                          ****END OF INPUT****

CARTESIAN COORDINATES (ANGSTROEM)
---------------------------------
  C     -4.922177    0.231539    2.107663
  C     -4.446966   -0.260950    0.727306
  O     -4.786048   -1.445661    0.381045
  O     -3.774664    0.534657    0.034272
  C      2.853834    2.539483    0.111094
  S      1.699014    2.002949   -1.213407
  C      2.621388   -0.654255    2.558361
  S      1.079319    0.109893    2.243750
  C      3.475179   -0.966107    1.545638
  S      3.017258   -0.732048   -0.112289
  C     -0.719852   -2.060810   -2.434513
  S      0.476784   -0.759924   -2.482057
  C     -1.165423   -2.576996   -1.263023
  S     -0.426778   -2.115489    0.280596
  W      0.581769    0.074169   -0.056710
  O     -3.686516    3.100880   -0.970074
  C     -0.958024    1.126222    0.768552
  C     -1.050846    1.201510   -0.527136
  H     -4.399031   -0.338057    2.886550
  H     -4.651123    1.285347    2.215183
  H      2.286624    2.922259    0.966567
  H      3.439558    1.684807    0.443645
  H     -3.719098    2.271105   -0.448699
  H     -4.432659    3.004669   -1.574445
  H     -1.423366    1.443209    1.691261
  H     -1.628538    1.662411   -1.315772
  H     -1.080680   -2.444086   -3.386693
  H     -2.006521   -3.265324   -1.212989
  H      3.558044    3.288012   -0.266819
  H      2.852091   -0.869929    3.599516
  H      4.480661   -1.317935    1.766923
  H     -6.001258    0.102048    2.241238

 Total Charge           Charge          ....   -2
 Multiplicity           Mult            ....    1
 Number of Electrons    NEL             ....  188
 Basis Dimension        Dim             .... 1005

ORBITAL ENERGIES
----------------

  NO   OCC          E(Eh)            E(eV)
   0   2.0000     -88.144743     -2398.5404
   1   2.0000     -88.123976     -2397.9753
   2   2.0000     -88.111501     -2397.6358
   3   2.0000     -88.102252     -2397.3842
   4   2.0000     -88.100119     -2397.3261
   5   2.0000     -18.653311      -507.5824
   6   2.0000     -18.582915      -505.6668
   7   2.0000     -18.569415      -505.2995
   8   2.0000      -9.818285      -267.1691
   9   2.0000      -9.815174      -267.0845
  10   2.0000      -9.804984      -266.8072
  11   2.0000      -9.794783      -266.5296
  12   2.0000      -9.783589      -266.2250
  13   2.0000      -9.779104      -266.1029
  14   2.0000      -9.767731      -265.7935
  15   2.0000      -9.764860      -265.7154
  16   2.0000      -9.757257      -265.5085
  17   2.0000      -7.524718      -204.7580
  18   2.0000      -7.504771      -204.2152
  19   2.0000      -7.492138      -203.8714
  20   2.0000      -7.483135      -203.6265
  21   2.0000      -7.480448      -203.5533
  22   2.0000      -5.503999      -149.7714
  23   2.0000      -5.500796      -149.6843
  24   2.0000      -5.497739      -149.6011
  25   2.0000      -5.484511      -149.2411
  26   2.0000      -5.479941      -149.1168
  27   2.0000      -5.478026      -149.0647
  28   2.0000      -5.471498      -148.8870
  29   2.0000      -5.467083      -148.7669
  30   2.0000      -5.466001      -148.7375
  31   2.0000      -5.463881      -148.6798
  32   2.0000      -5.460269      -148.5815
  33   2.0000      -5.458373      -148.5299
  34   2.0000      -5.455533      -148.4526
  35   2.0000      -5.455194      -148.4434
  36   2.0000      -5.453788      -148.4051
  37   2.0000      -2.664202       -72.4966
  38   2.0000      -1.342334       -36.5268
  39   2.0000      -1.338496       -36.4223
  40   2.0000      -1.332854       -36.2688
  41   2.0000      -0.713160       -19.4061
  42   2.0000      -0.701463       -19.0878
  43   2.0000      -0.612868       -16.6770
  44   2.0000      -0.553834       -15.0706
  45   2.0000      -0.518564       -14.1108
  46   2.0000      -0.486241       -13.2313
  47   2.0000      -0.479831       -13.0569
  48   2.0000      -0.461043       -12.5456
  49   2.0000      -0.434874       -11.8335
  50   2.0000      -0.427542       -11.6340
  51   2.0000      -0.394821       -10.7436
  52   2.0000      -0.366006        -9.9595
  53   2.0000      -0.344986        -9.3875
  54   2.0000      -0.293878        -7.9968
  55   2.0000      -0.278047        -7.5661
  56   2.0000      -0.257007        -6.9935
  57   2.0000      -0.252943        -6.8829
  58   2.0000      -0.233176        -6.3450
  59   2.0000      -0.214718        -5.8428
  60   2.0000      -0.210937        -5.7399
  61   2.0000      -0.201435        -5.4813
  62   2.0000      -0.183085        -4.9820
  63   2.0000      -0.174956        -4.7608
  64   2.0000      -0.168693        -4.5904
  65   2.0000      -0.163833        -4.4581
  66   2.0000      -0.153333        -4.1724
  67   2.0000      -0.143652        -3.9090
  68   2.0000      -0.134764        -3.6671
  69   2.0000      -0.116766        -3.1774
  70   2.0000      -0.113201        -3.0804
  71   2.0000      -0.108741        -2.9590
  72   2.0000      -0.099696        -2.7129
  73   2.0000      -0.092178        -2.5083
  74   2.0000      -0.090099        -2.4517
  75   2.0000      -0.083871        -2.2823
  76   2.0000      -0.076642        -2.0855
  77   2.0000      -0.069548        -1.8925
  78   2.0000      -0.060483        -1.6458
  79   2.0000      -0.052094        -1.4175
  80   2.0000      -0.045643        -1.2420
  81   2.0000      -0.040290        -1.0963
  82   2.0000      -0.034520        -0.9393
  83   2.0000      -0.027648        -0.7523
  84   2.0000      -0.013549        -0.3687
  85   2.0000      -0.007667        -0.2086
  86   2.0000      -0.004234        -0.1152
  87   2.0000       0.018948         0.5156
  88   2.0000       0.020187         0.5493
  89   2.0000       0.032776         0.8919
  90   2.0000       0.039671         1.0795
  91   2.0000       0.042288         1.1507
  92   2.0000       0.060841         1.6556
  93   2.0000       0.062895         1.7115
  94   0.0000       0.097579         2.6553
  95   0.0000       0.134772         3.6673
  96   0.0000       0.150154         4.0859
  97   0.0000       0.166362         4.5269
  98   0.0000       0.168605         4.5880

MULLIKEN ATOMIC CHARGES
-----------------------
   0 C :   -0.273754
   1 C :    0.694491
   2 O :   -0.849030
   3 O :   -0.830759
   4 C :    0.028548
   5 S :   -0.604725
   6 C :    0.191229
   7 S :   -0.535907
   8 C :    0.145764
   9 S :   -0.512391
  10 C :    0.229985
  11 S :   -0.571893
  12 C :    0.186570
  13 S :   -0.505218
  14 W :   -0.033004
  15 O :   -0.598724
  16 C :    0.041896
  17 C :    0.544109
  18 H :    0.037675
  19 H :    0.088080
  20 H :    0.098988
  21 H :    0.078708
  22 H :    0.538573
  23 H :    0.121073
  24 H :    0.019112
  25 H :   -0.057076
  26 H :    0.045126
  27 H :    0.037153
  28 H :    0.078614
  29 H :    0.069784
  30 H :    0.023233
  31 H :    0.073766
Sum of atomic charges:   -2.0000000

LOEWDIN ATOMIC CHARGES
----------------------
   0 C :    0.159350
   1 C :   -0.681611
   2 O :   -0.103862
   3 O :   -0.049510
   4 C :   -0.319570
   5 S :    0.437957
   6 C :   -0.544547
   7 S :    0.631381
   8 C :   -0.581728
   9 S :    0.528969
  10 C :   -0.579342
  11 S :    0.461725
  12 C :   -0.540085
  13 S :    0.548817
  14 W :    0.047311
  15 O :    0.367574
  16 C :   -0.204484
  17 C :   -0.169429
  18 H :   -0.033335
  19 H :   -0.041169
  20 H :   -0.086709
  21 H :   -0.152602
  22 H :   -0.282677
  23 H :   -0.229702
  24 H :   -0.060699
  25 H :   -0.053017
  26 H :   -0.087061
  27 H :   -0.074663
  28 H :   -0.093385
  29 H :   -0.089578
  30 H :   -0.081381
  31 H :   -0.042934

  Mayer bond orders larger than 0.100000
B(  0-C ,  1-C ) :   0.9753 B(  0-C , 18-H ) :   1.0017 B(  0-C , 19-H ) :   1.0107
B(  0-C , 31-H ) :   1.0110 B(  1-C ,  2-O ) :   1.1769 B(  1-C ,  3-O ) :   1.2752
B(  4-C ,  5-S ) :   0.7088 B(  4-C ,  9-S ) :  -0.1050 B(  4-C , 20-H ) :   0.9941
B(  4-C , 21-H ) :   0.9596 B(  4-C , 28-H ) :   0.9888 B(  5-S , 14-W ) :   0.9188
B(  6-C ,  7-S ) :   0.8606 B(  6-C ,  8-C ) :   1.4297 B(  6-C , 29-H ) :   1.0734
B(  7-S ,  8-C ) :   0.1015 B(  7-S , 14-W ) :   1.1188 B(  8-C ,  9-S ) :   0.9294
B(  8-C , 30-H ) :   1.1054 B(  9-S , 14-W ) :   0.9191 B( 10-C , 11-S ) :   0.8972
B( 10-C , 12-C ) :   1.4393 B( 10-C , 26-H ) :   1.0738 B( 10-C , 27-H ) :  -0.1118
B( 11-S , 14-W ) :   0.9378 B( 11-S , 17-C ) :  -0.1421 B( 12-C , 13-S ) :   0.8455
B( 12-C , 27-H ) :   1.1222 B( 13-S , 14-W ) :   1.1016 B( 14-W , 16-C ) :   1.0653
B( 14-W , 17-C ) :   1.0500 B( 15-O , 22-H ) :   0.5705 B( 15-O , 23-H ) :   1.0642
B( 16-C , 17-C ) :   1.1301 B( 16-C , 24-H ) :   1.0114 B( 17-C , 25-H ) :   1.0279

Dispersion correction           -0.071108074
FINAL SINGLE POINT ENERGY     -2635.891889954369

DIPOLE MOMENT
-------------
                                X             Y             Z
Electronic contribution:     93.07164       4.23368     -11.99491
Nuclear contribution   :    -89.05733      -3.76163      13.00017
                        -----------------------------------------
Total Dipole Moment    :      4.01432       0.47205       1.00526
                        -----------------------------------------
Magnitude (a.u.)       :      4.16511
Magnitude (Debye)      :     10.58686

Rotational constants in cm-1:     0.010716     0.005373     0.005252
Rotational constants in MHz :   321.254043   161.065395   157.440366

                             ****ORCA TERMINATED NORMALLY****
TOTAL RUN TIME: 0 days 0 hours 0 minutes 40 seconds 916 msec
