                         Program Version 4.2.0 -  RELEASE  -
|  1> #
|  2> # TMB10_C1 TPSS-D3BJ/Def2-TZVPPD
|  3> #
|  4> ! tpss d3bj def2-tzvppd def2/j grid4 nofinalgrid
|  5>
|  6> *xyz 0 1
|  7> Mo       0.133298    0.019814    0.066207
|  8> C       -1.075332   -1.355629   -0.909336
|  9> C       -2.072844    2.216315    0.675821
| 10> H       -2.495915    2.026095    1.680930
| 11> H       -2.910608    2.260759   -0.044542
| 12> H       -1.592380    3.211696    0.695601
| 13> C        3.010907   -1.316541   -0.054396
| 14> C        1.366704    2.705574   -0.540684
| 15> N       -1.143030    1.200231    0.316847
| 16> O        1.491405    1.304940   -0.439122
| 17> O        1.615447   -1.247555   -0.063202
| 18> H        3.367194   -2.025819   -0.825669
| 19> H        3.385726   -1.672276    0.926079
| 20> H        3.451946   -0.322838   -0.260301
| 21> H        2.294131    3.111318   -0.982908
| 22> H        1.229038    3.178184    0.450904
| 23> H        0.520365    2.998986   -1.190253
| 24> C       -0.462062   -1.067727    1.747714
| 25> C       -1.245054   -1.851214    0.615257
| 26> H        0.321659   -1.674412    2.211474
| 27> H       -1.131198   -0.604236    2.478956
| 28> H       -0.901967   -2.892720    0.638908
| 29> H       -2.316994   -1.775934    0.836451
| 30> C       -2.372818   -1.072037   -1.638655
| 31> H       -2.166926   -0.639290   -2.630957
| 32> H       -2.958163   -1.996472   -1.801781
| 33> H       -3.005382   -0.361002   -1.085358
| 34> H       -0.439666   -2.067375   -1.451890
| 35> *
| 36>
| 37> %maxcore 5000
| 38>
| 39> %pal
| 40> nprocs = 24
| 41> end
| 42>
| 43>
| 44>                          ****END OF INPUT****

CARTESIAN COORDINATES (ANGSTROEM)
---------------------------------
  Mo     0.133298    0.019814    0.066207
  C     -1.075332   -1.355629   -0.909336
  C     -2.072844    2.216315    0.675821
  H     -2.495915    2.026095    1.680930
  H     -2.910608    2.260759   -0.044542
  H     -1.592380    3.211696    0.695601
  C      3.010907   -1.316541   -0.054396
  C      1.366704    2.705574   -0.540684
  N     -1.143030    1.200231    0.316847
  O      1.491405    1.304940   -0.439122
  O      1.615447   -1.247555   -0.063202
  H      3.367194   -2.025819   -0.825669
  H      3.385726   -1.672276    0.926079
  H      3.451946   -0.322838   -0.260301
  H      2.294131    3.111318   -0.982908
  H      1.229038    3.178184    0.450904
  H      0.520365    2.998986   -1.190253
  C     -0.462062   -1.067727    1.747714
  C     -1.245054   -1.851214    0.615257
  H      0.321659   -1.674412    2.211474
  H     -1.131198   -0.604236    2.478956
  H     -0.901967   -2.892720    0.638908
  H     -2.316994   -1.775934    0.836451
  C     -2.372818   -1.072037   -1.638655
  H     -2.166926   -0.639290   -2.630957
  H     -2.958163   -1.996472   -1.801781
  H     -3.005382   -0.361002   -1.085358
  H     -0.439666   -2.067375   -1.451890

 Total Charge           Charge          ....    0
 Multiplicity           Mult            ....    1
 Number of Electrons    NEL             ....   96
 Basis Dimension        Dim             ....  721

ORBITAL ENERGIES
----------------

  NO   OCC          E(Eh)            E(eV)
   0   2.0000     -18.860199      -513.2121
   1   2.0000     -18.848024      -512.8808
   2   2.0000     -14.094230      -383.5235
   3   2.0000     -10.023817      -272.7619
   4   2.0000     -10.020246      -272.6648
   5   2.0000     -10.016527      -272.5635
   6   2.0000     -10.011084      -272.4155
   7   2.0000      -9.996540      -272.0197
   8   2.0000      -9.987102      -271.7628
   9   2.0000      -9.985134      -271.7093
  10   2.0000      -2.494457       -67.8776
  11   2.0000      -1.530846       -41.6564
  12   2.0000      -1.528203       -41.5845
  13   2.0000      -1.514365       -41.2080
  14   2.0000      -0.899574       -24.4786
  15   2.0000      -0.890761       -24.2388
  16   2.0000      -0.782194       -21.2846
  17   2.0000      -0.734438       -19.9851
  18   2.0000      -0.670741       -18.2518
  19   2.0000      -0.601811       -16.3761
  20   2.0000      -0.597159       -16.2495
  21   2.0000      -0.580826       -15.8051
  22   2.0000      -0.573912       -15.6169
  23   2.0000      -0.512038       -13.9333
  24   2.0000      -0.439061       -11.9475
  25   2.0000      -0.419029       -11.4024
  26   2.0000      -0.414765       -11.2863
  27   2.0000      -0.404386       -11.0039
  28   2.0000      -0.400534       -10.8991
  29   2.0000      -0.392586       -10.6828
  30   2.0000      -0.389236       -10.5917
  31   2.0000      -0.383323       -10.4307
  32   2.0000      -0.380710       -10.3597
  33   2.0000      -0.373899       -10.1743
  34   2.0000      -0.369553       -10.0560
  35   2.0000      -0.358642        -9.7592
  36   2.0000      -0.345659        -9.4059
  37   2.0000      -0.344260        -9.3678
  38   2.0000      -0.312329        -8.4989
  39   2.0000      -0.305759        -8.3201
  40   2.0000      -0.275227        -7.4893
  41   2.0000      -0.261534        -7.1167
  42   2.0000      -0.254368        -6.9217
  43   2.0000      -0.227490        -6.1903
  44   2.0000      -0.226735        -6.1698
  45   2.0000      -0.220002        -5.9866
  46   2.0000      -0.210698        -5.7334
  47   2.0000      -0.200471        -5.4551
  48   0.0000      -0.072597        -1.9755
  49   0.0000      -0.060049        -1.6340
  50   0.0000      -0.056391        -1.5345
  51   0.0000      -0.019369        -0.5270
  52   0.0000      -0.012887        -0.3507

MULLIKEN ATOMIC CHARGES
-----------------------
   0 Mo:    0.653126
   1 C :    0.715137
   2 C :   -0.107204
   3 H :    0.085325
   4 H :    0.064898
   5 H :    0.111871
   6 C :   -0.091588
   7 C :   -0.042963
   8 N :   -0.794047
   9 O :   -0.688010
  10 O :   -0.561028
  11 H :    0.050883
  12 H :    0.062977
  13 H :    0.106048
  14 H :    0.032188
  15 H :    0.070889
  16 H :    0.082704
  17 C :    0.235392
  18 C :    0.246025
  19 H :    0.027612
  20 H :   -0.011778
  21 H :    0.000791
  22 H :   -0.018927
  23 C :   -0.574644
  24 H :    0.034749
  25 H :    0.091751
  26 H :    0.046595
  27 H :    0.171227
Sum of atomic charges:   -0.0000000

LOEWDIN ATOMIC CHARGES
----------------------
   0 Mo:    1.141147
   1 C :   -0.209266
   2 C :    0.030118
   3 H :   -0.008552
   4 H :   -0.011917
   5 H :   -0.014139
   6 C :    0.006103
   7 C :   -0.013627
   8 N :   -0.093708
   9 O :   -0.299029
  10 O :   -0.295253
  11 H :   -0.007185
  12 H :   -0.006354
  13 H :   -0.016835
  14 H :   -0.006942
  15 H :   -0.012614
  16 H :   -0.016171
  17 C :   -0.008781
  18 C :   -0.062903
  19 H :   -0.054491
  20 H :   -0.057527
  21 H :    0.009372
  22 H :    0.005649
  23 C :    0.086398
  24 H :   -0.016247
  25 H :   -0.012757
  26 H :   -0.027803
  27 H :   -0.026687

  Mayer bond orders larger than 0.100000
B(  0-Mo,  1-C ) :   0.9669 B(  0-Mo,  2-C ) :   0.1621 B(  0-Mo,  8-N ) :   1.1717
B(  0-Mo,  9-O ) :   0.7943 B(  0-Mo, 10-O ) :   0.8826 B(  0-Mo, 17-C ) :   1.0277
B(  0-Mo, 18-C ) :   0.3040 B(  0-Mo, 23-C ) :   0.1234 B(  1-C ,  8-N ) :  -0.1102
B(  1-C , 10-O ) :  -0.1909 B(  1-C , 18-C ) :   0.7385 B(  1-C , 23-C ) :   0.9119
B(  1-C , 27-H ) :   0.9237 B(  2-C ,  3-H ) :   0.9758 B(  2-C ,  4-H ) :   0.9742
B(  2-C ,  5-H ) :   0.9782 B(  2-C ,  8-N ) :   0.6704 B(  6-C , 10-O ) :   0.9812
B(  6-C , 11-H ) :   0.9873 B(  6-C , 12-H ) :   0.9835 B(  6-C , 13-H ) :   0.9875
B(  7-C ,  9-O ) :   0.9067 B(  7-C , 14-H ) :   1.0207 B(  7-C , 15-H ) :   0.9830
B(  7-C , 16-H ) :   0.9674 B( 10-O , 17-C ) :  -0.2177 B( 17-C , 18-C ) :   0.8803
B( 17-C , 19-H ) :   1.0221 B( 17-C , 20-H ) :   1.0352 B( 18-C , 21-H ) :   0.9630
B( 18-C , 22-H ) :   1.0203 B( 23-C , 24-H ) :   0.9816 B( 23-C , 25-H ) :   0.9988
B( 23-C , 26-H ) :   1.0027

Dispersion correction           -0.040038499
FINAL SINGLE POINT ENERGY      -550.766489907147

DIPOLE MOMENT
-------------
                                X             Y             Z
Electronic contribution:     11.25530       0.87015       4.58917
Nuclear contribution   :    -12.16779      -0.65832      -4.35638
                        -----------------------------------------
Total Dipole Moment    :     -0.91249       0.21183       0.23279
                        -----------------------------------------
Magnitude (a.u.)       :      0.96524
Magnitude (Debye)      :      2.45345

Rotational constants in cm-1:     0.031161     0.027931     0.019091
Rotational constants in MHz :   934.171856   837.337056   572.342467

                             ****ORCA TERMINATED NORMALLY****
TOTAL RUN TIME: 0 days 0 hours 0 minutes 24 seconds 405 msec
