                         Program Version 4.2.0 -  RELEASE  -
|  1> #
|  2> # TMB20_T2 TPSS-D3BJ/Def2-TZVPPD
|  3> #
|  4> ! tpss d3bj def2-tzvppd def2/j grid4 nofinalgrid
|  5>
|  6> *xyz 0 1
|  7> Re       0.995979    0.090170   -0.058185
|  8> C        2.014396   -1.161086   -1.123855
|  9> C        1.992692   -0.479631    1.452527
| 10> C        2.318376    1.423242   -0.367549
| 11> Br      -0.834689   -1.732689    0.254349
| 12> O        3.132368    2.217573   -0.550268
| 13> O        2.612239   -1.888693   -1.769425
| 14> O        2.568963   -0.789175    2.393169
| 15> C       -1.540273    1.685786    1.546594
| 16> C       -0.263771    1.318522    1.475095
| 17> C       -2.014636    1.773094    0.144138
| 18> C       -2.942101    0.711821   -0.394874
| 19> O       -2.841029    0.284728   -1.529710
| 20> O       -3.882762    0.367872    0.447794
| 21> C       -0.602735    1.743713   -0.435058
| 22> O       -0.382838    0.990264   -1.561710
| 23> H       -1.229741    0.476538   -1.736592
| 24> C       -4.752144   -0.688497    0.013665
| 25> H       -5.447661   -0.845693    0.832416
| 26> H       -5.279179   -0.395656   -0.893281
| 27> H       -4.161178   -1.583930   -0.173849
| 28> H        0.422554    1.379477    2.313653
| 29> H       -2.484103    2.733887   -0.106082
| 30> H       -2.090878    1.979492    2.431124
| 31> H       -0.128477    2.714877   -0.508669
| 32> *
| 33>
| 34> %maxcore 5000
| 35>
| 36> %pal
| 37> nprocs = 24
| 38> end
| 39>
| 40>
| 41>                          ****END OF INPUT****

CARTESIAN COORDINATES (ANGSTROEM)
---------------------------------
  Re     0.995979    0.090170   -0.058185
  C      2.014396   -1.161086   -1.123855
  C      1.992692   -0.479631    1.452527
  C      2.318376    1.423242   -0.367549
  Br    -0.834689   -1.732689    0.254349
  O      3.132368    2.217573   -0.550268
  O      2.612239   -1.888693   -1.769425
  O      2.568963   -0.789175    2.393169
  C     -1.540273    1.685786    1.546594
  C     -0.263771    1.318522    1.475095
  C     -2.014636    1.773094    0.144138
  C     -2.942101    0.711821   -0.394874
  O     -2.841029    0.284728   -1.529710
  O     -3.882762    0.367872    0.447794
  C     -0.602735    1.743713   -0.435058
  O     -0.382838    0.990264   -1.561710
  H     -1.229741    0.476538   -1.736592
  C     -4.752144   -0.688497    0.013665
  H     -5.447661   -0.845693    0.832416
  H     -5.279179   -0.395656   -0.893281
  H     -4.161178   -1.583930   -0.173849
  H      0.422554    1.379477    2.313653
  H     -2.484103    2.733887   -0.106082
  H     -2.090878    1.979492    2.431124
  H     -0.128477    2.714877   -0.508669

 Total Charge           Charge          ....    0
 Multiplicity           Mult            ....    1
 Number of Electrons    NEL             ....  160
 Basis Dimension        Dim             ....  825

ORBITAL ENERGIES
----------------

  NO   OCC          E(Eh)            E(eV)
   0   2.0000    -481.677057    -13107.0991
   1   2.0000     -61.893337     -1684.2033
   2   2.0000     -55.726051     -1516.3829
   3   2.0000     -55.724770     -1516.3481
   4   2.0000     -55.724625     -1516.3441
   5   2.0000     -18.979503      -516.4585
   6   2.0000     -18.969479      -516.1858
   7   2.0000     -18.953401      -515.7482
   8   2.0000     -18.949118      -515.6317
   9   2.0000     -18.938501      -515.3428
  10   2.0000     -18.916316      -514.7391
  11   2.0000     -10.151598      -276.2390
  12   2.0000     -10.134077      -275.7623
  13   2.0000     -10.089874      -274.5594
  14   2.0000     -10.087474      -274.4941
  15   2.0000     -10.078120      -274.2396
  16   2.0000     -10.064460      -273.8679
  17   2.0000     -10.057425      -273.6765
  18   2.0000     -10.037002      -273.1207
  19   2.0000     -10.026155      -272.8256
  20   2.0000      -8.423072      -229.2035
  21   2.0000      -6.263584      -170.4408
  22   2.0000      -6.258924      -170.3140
  23   2.0000      -6.258520      -170.3030
  24   2.0000      -3.111052       -84.6560
  25   2.0000      -2.431121       -66.1542
  26   2.0000      -2.429832       -66.1191
  27   2.0000      -2.429531       -66.1109
  28   2.0000      -2.426025       -66.0155
  29   2.0000      -2.425973       -66.0141
  30   2.0000      -1.706621       -46.4395
  31   2.0000      -1.697350       -46.1872
  32   2.0000      -1.695813       -46.1454
  33   2.0000      -1.088060       -29.6076
  34   2.0000      -1.060369       -28.8541
  35   2.0000      -1.059478       -28.8299
  36   2.0000      -1.055437       -28.7199
  37   2.0000      -1.043659       -28.3994
  38   2.0000      -0.996925       -27.1277
  39   2.0000      -0.831745       -22.6329
  40   2.0000      -0.725921       -19.7533
  41   2.0000      -0.683405       -18.5964
  42   2.0000      -0.660153       -17.9637
  43   2.0000      -0.656641       -17.8681
  44   2.0000      -0.573004       -15.5922
  45   2.0000      -0.557839       -15.1796
  46   2.0000      -0.538877       -14.6636
  47   2.0000      -0.525989       -14.3129
  48   2.0000      -0.519396       -14.1335
  49   2.0000      -0.514357       -13.9964
  50   2.0000      -0.509654       -13.8684
  51   2.0000      -0.483917       -13.1681
  52   2.0000      -0.476750       -12.9730
  53   2.0000      -0.469171       -12.7668
  54   2.0000      -0.458331       -12.4718
  55   2.0000      -0.436935       -11.8896
  56   2.0000      -0.426420       -11.6035
  57   2.0000      -0.423406       -11.5215
  58   2.0000      -0.421943       -11.4817
  59   2.0000      -0.414548       -11.2804
  60   2.0000      -0.413750       -11.2587
  61   2.0000      -0.406899       -11.0723
  62   2.0000      -0.404901       -11.0179
  63   2.0000      -0.403371       -10.9763
  64   2.0000      -0.395110       -10.7515
  65   2.0000      -0.394050       -10.7226
  66   2.0000      -0.390094       -10.6150
  67   2.0000      -0.371569       -10.1109
  68   2.0000      -0.358880        -9.7656
  69   2.0000      -0.351395        -9.5619
  70   2.0000      -0.311639        -8.4801
  71   2.0000      -0.307141        -8.3577
  72   2.0000      -0.301485        -8.2038
  73   2.0000      -0.281689        -7.6652
  74   2.0000      -0.268451        -7.3049
  75   2.0000      -0.253117        -6.8877
  76   2.0000      -0.241719        -6.5775
  77   2.0000      -0.229199        -6.2368
  78   2.0000      -0.207405        -5.6438
  79   2.0000      -0.203284        -5.5316
  80   0.0000      -0.108488        -2.9521
  81   0.0000      -0.069871        -1.9013
  82   0.0000      -0.068533        -1.8649
  83   0.0000      -0.058252        -1.5851
  84   0.0000      -0.050906        -1.3852

MULLIKEN ATOMIC CHARGES
-----------------------
   0 Re:   -0.409642
   1 C :    0.685972
   2 C :    0.568486
   3 C :    0.377514
   4 Br:   -0.582258
   5 O :   -0.413530
   6 O :   -0.328472
   7 O :   -0.371596
   8 C :   -0.629601
   9 C :    0.093302
  10 C :    1.451987
  11 C :    0.332770
  12 O :   -0.673241
  13 O :   -0.325315
  14 C :   -0.058155
  15 O :   -0.505492
  16 H :    0.441594
  17 C :   -0.017180
  18 H :    0.062495
  19 H :    0.105113
  20 H :    0.097209
  21 H :    0.026315
  22 H :   -0.028912
  23 H :   -0.032606
  24 H :    0.133243
Sum of atomic charges:   -0.0000000

LOEWDIN ATOMIC CHARGES
----------------------
   0 Re:    0.598592
   1 C :   -0.296400
   2 C :   -0.333406
   3 C :   -0.285647
   4 Br:    0.187480
   5 O :    0.111376
   6 O :    0.139624
   7 O :    0.139265
   8 C :    0.017355
   9 C :    0.024982
  10 C :   -0.089850
  11 C :   -0.494902
  12 O :    0.130187
  13 O :    0.060228
  14 C :   -0.157484
  15 O :    0.153482
  16 H :   -0.207807
  17 C :    0.193116
  18 H :    0.011231
  19 H :    0.011703
  20 H :    0.003040
  21 H :   -0.037234
  22 H :    0.068736
  23 H :    0.013893
  24 H :    0.038441

  Mayer bond orders larger than 0.100000
B(  0-Re,  1-C ) :   1.2679 B(  0-Re,  2-C ) :   1.5521 B(  0-Re,  3-C ) :   1.5688
B(  0-Re,  4-Br) :   0.2483 B(  0-Re,  5-O ) :   0.1791 B(  0-Re,  6-O ) :   0.1538
B(  0-Re,  7-O ) :   0.1578 B(  0-Re,  9-C ) :   0.4859 B(  0-Re, 14-C ) :   0.4030
B(  0-Re, 15-O ) :   0.4808 B(  1-C ,  2-C ) :  -0.1182 B(  1-C ,  6-O ) :   1.9566
B(  1-C ,  8-C ) :   0.1029 B(  2-C ,  4-Br) :   0.1349 B(  2-C ,  7-O ) :   1.8942
B(  2-C ,  9-C ) :   0.1536 B(  3-C ,  5-O ) :   1.8078 B(  4-Br, 11-C ) :   0.1629
B(  4-Br, 16-H ) :  -0.1206 B(  8-C ,  9-C ) :   1.5661 B(  8-C , 10-C ) :   0.7282
B(  8-C , 13-O ) :   0.1480 B(  8-C , 14-C ) :   0.2344 B(  8-C , 23-H ) :   1.1775
B(  9-C , 10-C ) :   0.1140 B(  9-C , 14-C ) :   0.2075 B(  9-C , 21-H ) :   1.0226
B(  9-C , 23-H ) :  -0.1054 B( 10-C , 11-C ) :   0.2892 B( 10-C , 13-O ) :   0.1120
B( 10-C , 14-C ) :   0.9383 B( 10-C , 22-H ) :   0.7122 B( 11-C , 12-O ) :   1.1618
B( 11-C , 13-O ) :   0.7232 B( 11-C , 14-C ) :   0.4739 B( 12-O , 13-O ) :   0.1149
B( 12-O , 14-C ) :   0.1222 B( 13-O , 17-C ) :   0.8583 B( 14-C , 15-O ) :   0.5282
B( 14-C , 24-H ) :   0.9683 B( 15-O , 16-H ) :   0.8287 B( 15-O , 24-H ) :  -0.1211
B( 17-C , 18-H ) :   1.0297 B( 17-C , 19-H ) :   0.9512 B( 17-C , 20-H ) :   0.9568

Dispersion correction           -0.049259898
FINAL SINGLE POINT ENERGY     -3452.091267093589

DIPOLE MOMENT
-------------
                                X             Y             Z
Electronic contribution:    141.03224      -0.80256      -7.47454
Nuclear contribution   :   -143.25315       2.56406       7.67326
                        -----------------------------------------
Total Dipole Moment    :     -2.22091       1.76150       0.19873
                        -----------------------------------------
Magnitude (a.u.)       :      2.84162
Magnitude (Debye)      :      7.22282

Rotational constants in cm-1:     0.017495     0.008280     0.007326
Rotational constants in MHz :   524.496520   248.224980   219.630549

                             ****ORCA TERMINATED NORMALLY****
TOTAL RUN TIME: 0 days 0 hours 0 minutes 33 seconds 196 msec
