                         Program Version 4.2.0 -  RELEASE  -
|  1> # input to generate an atomic fitting density for Re
|  2> # this file is use internally by ORCA
|  3> #
|  4> # atomic ground state (S=6): 1s2 2s2 2p6 3s2 3p6 4s2 3d10 4p6 5s2 4d10 5p6 6s2 4f14 5d5
|  5> #
|  6> ! RHF AllowRHF def2-SVP def2/J  NoMulliken NoLoewdin NoMayer NoPrintMOs
|  7>
|  8> %output print[p_atomdensfit] 2 end
|  9>
| 10> %scf
| 11>   guess hcore
| 12>   maxiter 1000
| 13>   maxdisk 500000
| 14>   SCFMode Conventional
| 15>   lshift 0.500000
| 16>   hftyp rohf
| 17>   rohf_case sahf
| 18>   rohf_numop   2
| 19>   rohf_norb[1] 5
| 20>   rohf_nel[1]  5
| 21> end
| 22>
| 23> %basis
| 24>   NewECP 75
| 25>     N_core 60
| 26>     lmax f
| 27>     s 3
| 28>       1      14.0993051000   1038.9515723000  2
| 29>       2       7.0496525000     29.5617383000  2
| 30>       3       2.5086506000    -16.4498523000  2
| 31>     p 3
| 32>       1      10.1077169000    339.5435096000  2
| 33>       2       5.0538583000     24.9136965000  2
| 34>       3       2.5086506000    -16.4498523000  2
| 35>     d 3
| 36>       1       6.8486179000    111.6996527000  2
| 37>       2       3.4243090000     12.6243293000  2
| 38>       3       2.5086506000    -16.4498523000  2
| 39>     f 1
| 40>       1       2.5086506000     16.4498523000  2
| 41>   end
| 42>   NewGTO 75
| 43>     s 3
| 44>      1      30.0000000000      0.9973027955
| 45>      2      27.0000000000     -1.4589639639
| 46>      3      13.0780456840      1.4348422075
| 47>     s 1
| 48>      1       5.0352712861      1.0000000000
| 49>     s 1
| 50>      1       1.0482706438      1.0000000000
| 51>     s 1
| 52>      1       0.4770877341      1.0000000000
| 53>     s 1
| 54>      1       0.1222585725      1.0000000000
| 55>     s 1
| 56>      1       0.0440074006      1.0000000000
| 57>     p 4
| 58>      1      18.0000000000     -0.0654422411
| 59>      2      12.3186062500      0.2426593672
| 60>      3       5.3719234505     -0.7127910952
| 61>      4       1.3506646748      1.2524914706
| 62>     p 1
| 63>      1       0.6621281681      1.0000000000
| 64>     p 1
| 65>      1       0.3107138519      1.0000000000
| 66>     p 1
| 67>      1       0.0700000000      1.0000000000
| 68>     d 4
| 69>      1       7.7352877672      0.0616881431
| 70>      2       6.0949443610     -0.1303015252
| 71>      3       1.3871105497      0.4061349964
| 72>      4       0.6232402785      0.6762765945
| 73>     d 1
| 74>      1       0.2651732855      1.0000000000
| 75>     d 1
| 76>      1       0.1032109685      1.0000000000
| 77>     p 1
| 78>      1       0.0296511907      1.0000000000
| 79>   end
| 80>   NewAuxGTO 75
| 81>     S 1
| 82>      1 1310.72 1.0
| 83>     S 1
| 84>      1  655.36 1.0
| 85>     S 1
| 86>      1  327.68 1.0
| 87>     S 1
| 88>      1  163.84 1.0
| 89>     S 1
| 90>      1   81.82 1.0
| 91>     S 1
| 92>      1   40.96 1.0
| 93>     S 1
| 94>      1   20.48 1.0
| 95>     S 1
| 96>      1   10.24 1.0
| 97>     S 1
| 98>      1    5.12 1.0
| 99>     S 1
|100>      1    2.56 1.0
|101>     S 1
|102>      1    1.28 1.0
|103>     S 1
|104>      1    0.64 1.0
|105>     S 1
|106>      1    0.32 1.0
|107>     S 1
|108>      1    0.16 1.0
|109>     S 1
|110>      1    0.08 1.0
|111>     S 1
|112>      1    0.04 1.0
|113>     S 1
|114>      1    0.02 1.0
|115>     S 1
|116>      1    0.01 1.0
|117>   end
|118> end
|119>
|120> * xyz 0 6
|121> 75  0.0 0.0 0.0
|122> *
|123>
|124>
|125>                          ****END OF INPUT****

CARTESIAN COORDINATES (ANGSTROEM)
---------------------------------
  Re     0.000000    0.000000    0.000000

 Total Charge           Charge          ....    0
 Multiplicity           Mult            ....    6
 Number of Electrons    NEL             ....   15
 Basis Dimension        Dim             ....   36

ORBITAL ENERGIES
----------------

  NO   OCC          E(Eh)            E(eV)
   0   2.0000      -3.582677       -97.4896
   1   2.0000      -1.992827       -54.2276
   2   2.0000      -1.983771       -53.9811
   3   2.0000      -1.981377       -53.9160
   4   2.0000      -0.258520        -7.0347
   5   1.0000      -0.366760        -9.9800
   6   1.0000      -0.359729        -9.7887
   7   1.0000      -0.355683        -9.6786
   8   1.0000      -0.339454        -9.2370
   9   1.0000      -0.286620        -7.7993
  10   0.0000       0.031028         0.8443
  11   0.0000       0.036191         0.9848
  12   0.0000       0.037471         1.0196
  13   0.0000       0.150788         4.1031
  14   0.0000       0.161277         4.3886

CleanUpVectors: The p-vectors have cracked symmetry
CleanUpVectors: The p-vectors have cracked symmetry
CleanUpVectors: The p-vectors have cracked symmetry
CleanUpVectors: The d-vectors have cracked symmetry at i=4
CleanUpVectors: The d-vectors have cracked symmetry at i=6
CleanUpVectors: The d-vectors have cracked symmetry at i=7
CleanUpVectors: The d-vectors have cracked symmetry at i=8
CleanUpVectors: The d-vectors have cracked symmetry at i=9
CleanUpVectors: The p-vectors have cracked symmetry
CleanUpVectors: The p-vectors have cracked symmetry
CleanUpVectors: The p-vectors have cracked symmetry
CleanUpVectors: The p-vectors have cracked symmetry
CleanUpVectors: The p-vectors have cracked symmetry
CleanUpVectors: The p-vectors have cracked symmetry
CleanUpVectors: The d-vectors have cracked symmetry at i=17
CleanUpVectors: The d-vectors have cracked symmetry at i=18
CleanUpVectors: The d-vectors have cracked symmetry at i=19
CleanUpVectors: The d-vectors have cracked symmetry at i=20
CleanUpVectors: The d-vectors have cracked symmetry at i=21
CleanUpVectors: The p-vectors have cracked symmetry
CleanUpVectors: The p-vectors have cracked symmetry
CleanUpVectors: The p-vectors have cracked symmetry
CleanUpVectors: The d-vectors have cracked symmetry at i=25
CleanUpVectors: The d-vectors have cracked symmetry at i=26
CleanUpVectors: The d-vectors have cracked symmetry at i=27
CleanUpVectors: The d-vectors have cracked symmetry at i=28
CleanUpVectors: The d-vectors have cracked symmetry at i=29
CleanUpVectors: The p-vectors have cracked symmetry
CleanUpVectors: The p-vectors have cracked symmetry
CleanUpVectors: The p-vectors have cracked symmetry
--------------------------
ATOM BASIS FOR ELEMENT Re
--------------------------
 NewGTO Re
 S 8
    1         30.000000000000        -0.316829806267
    2         27.000000000000         0.463493406535
    3         13.078045684000        -0.455830246017
    4          5.035271286100         0.860721833996
    5          1.048270643800        -0.940551112141
    6          0.477087734100        -0.379540512160
    7          0.122258572500        -0.010675664880
    8          0.044007400600         0.005190417805
 P 22
    1         18.000000000000         0.002352545461
    2         12.318606250000        -0.008723221933
    3          5.371923450500         0.025623716846
    4          1.350664674800        -0.045025095026
    5         18.000000000000         0.010091022169
    6         12.318606250000        -0.037417438839
    7          5.371923450500         0.109910519908
    8          1.350664674800        -0.193130904189
    9         18.000000000000         0.024703480734
   10         12.318606250000        -0.091600331863
   11          5.371923450500         0.269068124683
   12          1.350664674800        -0.472797055750
   13          0.662128168100        -0.042796803230
   14          0.662128168100        -0.183572856413
   15          0.662128168100        -0.449398331109
   16          0.310713851900        -0.014461223653
   17          0.310713851900        -0.062030056751
   18          0.310713851900        -0.151853626550
   19          0.070000000000        -0.000751807568
   20          0.070000000000        -0.003224807750
   21          0.070000000000        -0.007894539799
   22          0.029651190700         0.000202158698
 D 22
    1         30.000000000000        -0.000017276474
    2         27.000000000000         0.000028082136
    3         13.078045684000        -0.000057017822
    4          5.035271286100         0.000293103979
    5          1.048270643800        -0.002349127438
    6          0.477087734100        -0.001248666459
    7          0.122258572500         0.029915271106
    8          0.044007400600        -0.009133164644
    9          7.735287767200         0.010409179716
   10          6.094944361000        -0.021986915554
   11          1.387110549700         0.068530708721
   12          0.623240278500         0.114114062377
   13          7.735287767200        -0.031487709598
   14          6.094944361000         0.066510294839
   15          1.387110549700        -0.207305005168
   16          0.623240278500        -0.345194391423
   17          7.735287767200         0.012157692709
   18          6.094944361000        -0.025680233238
   19          1.387110549700         0.080042358811
   20          0.623240278500         0.133282712183
   21          7.735287767200        -0.005548220545
   22          6.094944361000         0.011719295846
 S 8
    1         30.000000000000        -1.927185257335
    2         27.000000000000         2.819298065640
    3         13.078045684000        -2.772685248023
    4          5.035271286100         1.309025276893
    5          1.048270643800        -0.594999415714
    6          0.477087734100         0.401641244731
    7          0.122258572500        -0.135525090806
    8          0.044007400600         0.049887578631
 D 22
    1         30.000000000000         0.000081670497
    2         27.000000000000        -0.000132751738
    3         13.078045684000         0.000269538438
    4          5.035271286100        -0.001362660051
    5          1.048270643800         0.007294519926
    6          0.477087734100         0.025738845036
    7          0.122258572500        -0.093469673343
    8          0.044007400600        -0.640679618443
    9          7.735287767200        -0.019889638089
   10          6.094944361000         0.042012128237
   11          1.387110549700        -0.130947013276
   12          0.623240278500        -0.218046711028
   13          7.735287767200         0.005674794359
   14          6.094944361000        -0.011986652912
   15          1.387110549700         0.037361030348
   16          0.623240278500         0.062211802958
   17          7.735287767200         0.004039630584
   18          6.094944361000        -0.008532758483
   19          1.387110549700         0.026595635241
   20          0.623240278500         0.044285781302
   21          7.735287767200        -0.022929405406
   22          6.094944361000         0.048432913460
 P 22
    1         18.000000000000         0.002435768003
    2         12.318606250000        -0.009031810530
    3          5.371923450500         0.026530169404
    4          1.350664674800        -0.046617881615
    5         18.000000000000        -0.001579187500
    6         12.318606250000         0.005855616081
    7          5.371923450500        -0.017200370411
    8          1.350664674800         0.030223886600
    9         18.000000000000         0.000413114298
   10         12.318606250000        -0.001531824896
   11          5.371923450500         0.004499604356
   12          1.350664674800        -0.007906546693
   13          0.662128168100        -0.089772704716
   14          0.662128168100         0.058202559900
   15          0.662128168100        -0.015225747224
   16          0.310713851900         0.061870139074
   17          0.310713851900        -0.040112420438
   18          0.310713851900         0.010493379933
   19          0.070000000000        -0.124906133493
   20          0.070000000000         0.080980702760
   21          0.070000000000        -0.021184492784
   22          0.029651190700         0.919510997067
 P 22
    1         18.000000000000         0.005200455052
    2         12.318606250000        -0.019283250556
    3          5.371923450500         0.056642895932
    4          1.350664674800        -0.099530906744
    5         18.000000000000        -0.003371623899
    6         12.318606250000         0.012501957573
    7          5.371923450500        -0.036723428952
    8          1.350664674800         0.064529119181
    9         18.000000000000         0.000882014353
   10         12.318606250000        -0.003270502984
   11          5.371923450500         0.009606822232
   12          1.350664674800        -0.016880770518
   13          0.662128168100        -0.123168282232
   14          0.662128168100         0.079853997352
   15          0.662128168100        -0.020889747472
   16          0.310713851900        -0.120135298563
   17          0.310713851900         0.077887615541
   18          0.310713851900        -0.020375343424
   19          0.070000000000         1.501124157594
   20          0.070000000000        -0.973227541478
   21          0.070000000000         0.254595615099
   22          0.029651190700        -1.108216936097
 P 22
    1         18.000000000000         0.093809444829
    2         12.318606250000        -0.347844758018
    3          5.371923450500         1.021764166321
    4          1.350664674800        -1.795408096285
    5         18.000000000000         0.128612879025
    6         12.318606250000        -0.476895645892
    7          5.371923450500         1.400840089768
    8          1.350664674800        -2.461506991213
    9         18.000000000000        -0.061470139107
   10         12.318606250000         0.227930841099
   11          5.371923450500        -0.669527312016
   12          1.350664674800         1.176469870739
   13          0.662128168100         2.212084731248
   14          0.662128168100         3.032771235905
   15          0.662128168100        -1.449503900100
   16          0.310713851900        -1.126340177523
   17          0.310713851900        -1.544213946230
   18          0.310713851900         0.738052415939
   19          0.070000000000         0.337453184918
   20          0.070000000000         0.462648784754
   21          0.070000000000        -0.221121596624
   22          0.029651190700        -0.156364493558
 D 22
    1         30.000000000000        -0.000002766629
    2         27.000000000000         0.000004497031
    3         13.078045684000        -0.000009130749
    4          5.035271286100         0.000049865279
    5          1.048270643800        -0.001178821417
    6          0.477087734100         0.005256850982
    7          0.122258572500        -0.036551274534
    8          0.044007400600         0.085758986184
    9          7.735287767200         0.004707266415
   10          6.094944361000        -0.009942980329
   11          1.387110549700         0.030991135936
   12          0.623240278500         0.051604959081
   13          7.735287767200        -0.013881340547
   14          6.094944361000         0.029321029200
   15          1.387110549700        -0.091390304683
   16          0.623240278500        -0.152178769545
   17          7.735287767200         0.005318764592
   18          6.094944361000        -0.011234624737
   19          1.387110549700         0.035017044277
   20          0.623240278500         0.058308709328
   21          7.735287767200        -0.002288667919
   22          6.094944361000         0.004834266450
 D 22
    1         30.000000000000        -0.000035228502
    2         27.000000000000         0.000057262353
    3         13.078045684000        -0.000116265185
    4          5.035271286100         0.000613523074
    5          1.048270643800        -0.006917495202
    6          0.477087734100         0.009152624407
    7          0.122258572500         0.014583466449
    8          0.044007400600        -0.013814188311
    9          7.735287767200        -0.038747580241
   10          6.094944361000         0.081845044275
   11          1.387110549700        -0.255101670613
   12          0.623240278500        -0.424783115424
   13          7.735287767200         0.010543477093
   14          6.094944361000        -0.022270586812
   15          1.387110549700         0.069414879685
   16          0.623240278500         0.115586341629
   17          7.735287767200         0.008125830143
   18          6.094944361000        -0.017163882846
   19          1.387110549700         0.053497865716
   20          0.623240278500         0.089082090340
   21          7.735287767200        -0.044984343575
   22          6.094944361000         0.095018722942
 P 22
    1         18.000000000000         0.014985712872
    2         12.318606250000        -0.055566917351
    3          5.371923450500         0.163223057624
    4          1.350664674800        -0.286809822480
    5         18.000000000000         0.064279803834
    6         12.318606250000        -0.238349058038
    7          5.371923450500         0.700129931430
    8          1.350664674800        -1.230243718436
    9         18.000000000000         0.157361154207
   10         12.318606250000        -0.583494046962
   11          5.371923450500         1.713963757408
   12          1.350664674800        -3.011716899282
   13          0.662128168100         0.353395686577
   14          0.662128168100         1.515857510650
   15          0.662128168100         3.710918099651
   16          0.310713851900        -0.179960761822
   17          0.310713851900        -0.771924737033
   18          0.310713851900        -1.889722126320
   19          0.070000000000         0.053930780301
   20          0.070000000000         0.231331002270
   21          0.070000000000         0.566313388498
   22          0.029651190700        -0.024991398936
 end
  // -----------------------------------------------
  // The basis set
  // -----------------------------------------------
  BAS[ATNO] = new BFNGauss[NSH];
  // Basis function   1 L = s
  InitBFNGauss(BAS[ATNO][  0]);
  BAS[ATNO][  0].l  = 0;
  BAS[ATNO][  0].ng = 8;
  BAS[ATNO][  0].a[  0] =        30.000000000000;     BAS[ATNO][  0].d[  0] =         0.316829806267;
  BAS[ATNO][  0].a[  1] =        27.000000000000;     BAS[ATNO][  0].d[  1] =        -0.463493406535;
  BAS[ATNO][  0].a[  2] =        13.078045684000;     BAS[ATNO][  0].d[  2] =         0.455830246017;
  BAS[ATNO][  0].a[  3] =         5.035271286100;     BAS[ATNO][  0].d[  3] =        -0.860721833996;
  BAS[ATNO][  0].a[  4] =         1.048270643800;     BAS[ATNO][  0].d[  4] =         0.940551112141;
  BAS[ATNO][  0].a[  5] =         0.477087734100;     BAS[ATNO][  0].d[  5] =         0.379540512160;
  BAS[ATNO][  0].a[  6] =         0.122258572500;     BAS[ATNO][  0].d[  6] =         0.010675664880;
  BAS[ATNO][  0].a[  7] =         0.044007400600;     BAS[ATNO][  0].d[  7] =        -0.005190417805;

FINAL SINGLE POINT ENERGY       -77.460918858948

DIPOLE MOMENT
-------------
                                X             Y             Z
Electronic contribution:     -0.00000       0.00000       0.00000
Nuclear contribution   :      0.00000       0.00000       0.00000
                        -----------------------------------------
Total Dipole Moment    :     -0.00000       0.00000       0.00000
                        -----------------------------------------
Magnitude (a.u.)       :      0.00000
Magnitude (Debye)      :      0.00000

Rotational constants in cm-1:     0.000000     0.000000     0.000000
Rotational constants in MHz :     0.000000     0.000000     0.000000

                             ****ORCA TERMINATED NORMALLY****
TOTAL RUN TIME: 0 days 0 hours 0 minutes 1 seconds 435 msec
