                         Program Version 4.2.0 -  RELEASE  -
|  1> #
|  2> # TMB20_T3 TPSS-D3BJ/Def2-TZVPPD
|  3> #
|  4> ! tpss d3bj def2-tzvppd def2/j grid4 nofinalgrid
|  5>
|  6> *xyz 0 1
|  7> Re      -0.699337    0.269974   -0.016922
|  8> C       -1.517494    1.171658    1.511937
|  9> C       -2.128741    0.734814   -1.269556
| 10> C        0.006415    1.979914   -0.520985
| 11> Br      -2.293994   -1.692635    0.422377
| 12> O        0.401983    3.017146   -0.812479
| 13> O       -1.978437    1.683611    2.420736
| 14> O       -2.925520    0.985618   -2.040062
| 15> C        1.682445   -0.880018   -1.649716
| 16> C        0.364751   -1.082540   -1.469297
| 17> C        2.354559    0.058914   -0.699791
| 18> C        3.755152   -0.401179   -0.311110
| 19> O        4.391770   -1.216840   -0.916463
| 20> O        4.190730    0.250058    0.766853
| 21> C        1.438220    0.283372    0.494253
| 22> O        0.848413   -0.807036    1.012308
| 23> H        0.600901   -1.340620   -0.125835
| 24> C        5.512413   -0.088930    1.195157
| 25> H        5.700542    0.516294    2.077458
| 26> H        5.571154   -1.149548    1.436871
| 27> H        6.234349    0.138790    0.411497
| 28> H       -0.156995   -1.792005   -2.102193
| 29> H        2.493970    1.031893   -1.188973
| 30> H        1.754916    1.016172    1.230092
| 31> H        2.303398   -1.383326   -2.385460
| 32> *
| 33>
| 34> %maxcore 5000
| 35>
| 36> %pal
| 37> nprocs = 24
| 38> end
| 39>
| 40>
| 41>                          ****END OF INPUT****

CARTESIAN COORDINATES (ANGSTROEM)
---------------------------------
  Re    -0.699337    0.269974   -0.016922
  C     -1.517494    1.171658    1.511937
  C     -2.128741    0.734814   -1.269556
  C      0.006415    1.979914   -0.520985
  Br    -2.293994   -1.692635    0.422377
  O      0.401983    3.017146   -0.812479
  O     -1.978437    1.683611    2.420736
  O     -2.925520    0.985618   -2.040062
  C      1.682445   -0.880018   -1.649716
  C      0.364751   -1.082540   -1.469297
  C      2.354559    0.058914   -0.699791
  C      3.755152   -0.401179   -0.311110
  O      4.391770   -1.216840   -0.916463
  O      4.190730    0.250058    0.766853
  C      1.438220    0.283372    0.494253
  O      0.848413   -0.807036    1.012308
  H      0.600901   -1.340620   -0.125835
  C      5.512413   -0.088930    1.195157
  H      5.700542    0.516294    2.077458
  H      5.571154   -1.149548    1.436871
  H      6.234349    0.138790    0.411497
  H     -0.156995   -1.792005   -2.102193
  H      2.493970    1.031893   -1.188973
  H      1.754916    1.016172    1.230092
  H      2.303398   -1.383326   -2.385460

 Total Charge           Charge          ....    0
 Multiplicity           Mult            ....    1
 Number of Electrons    NEL             ....  160
 Basis Dimension        Dim             ....  825

ORBITAL ENERGIES
----------------

  NO   OCC          E(Eh)            E(eV)
   0   2.0000    -481.694481    -13107.5732
   1   2.0000     -61.910734     -1684.6767
   2   2.0000     -55.743758     -1516.8648
   3   2.0000     -55.742065     -1516.8187
   4   2.0000     -55.741762     -1516.8104
   5   2.0000     -18.978547      -516.4325
   6   2.0000     -18.967152      -516.1225
   7   2.0000     -18.963343      -516.0188
   8   2.0000     -18.962541      -515.9970
   9   2.0000     -18.955664      -515.8099
  10   2.0000     -18.902135      -514.3533
  11   2.0000     -10.138628      -275.8861
  12   2.0000     -10.117246      -275.3043
  13   2.0000     -10.113797      -275.2104
  14   2.0000     -10.105788      -274.9925
  15   2.0000     -10.099221      -274.8138
  16   2.0000     -10.065529      -273.8970
  17   2.0000     -10.052916      -273.5537
  18   2.0000     -10.039149      -273.1791
  19   2.0000     -10.003482      -272.2086
  20   2.0000      -8.440521      -229.6782
  21   2.0000      -6.282200      -170.9474
  22   2.0000      -6.276181      -170.7836
  23   2.0000      -6.274976      -170.7508
  24   2.0000      -3.138717       -85.4088
  25   2.0000      -2.449362       -66.6505
  26   2.0000      -2.448098       -66.6161
  27   2.0000      -2.447153       -66.5904
  28   2.0000      -2.442514       -66.4642
  29   2.0000      -2.442493       -66.4636
  30   2.0000      -1.734650       -47.2022
  31   2.0000      -1.727900       -47.0185
  32   2.0000      -1.716612       -46.7114
  33   2.0000      -1.086893       -29.5759
  34   2.0000      -1.075312       -29.2607
  35   2.0000      -1.074789       -29.2465
  36   2.0000      -1.070684       -29.1348
  37   2.0000      -1.031050       -28.0563
  38   2.0000      -0.987716       -26.8771
  39   2.0000      -0.804920       -21.9030
  40   2.0000      -0.731241       -19.8981
  41   2.0000      -0.688779       -18.7426
  42   2.0000      -0.676883       -18.4189
  43   2.0000      -0.618242       -16.8232
  44   2.0000      -0.567524       -15.4431
  45   2.0000      -0.560101       -15.2411
  46   2.0000      -0.550593       -14.9824
  47   2.0000      -0.536597       -14.6015
  48   2.0000      -0.528286       -14.3754
  49   2.0000      -0.515169       -14.0185
  50   2.0000      -0.499325       -13.5873
  51   2.0000      -0.472027       -12.8445
  52   2.0000      -0.465980       -12.6799
  53   2.0000      -0.460339       -12.5265
  54   2.0000      -0.453414       -12.3380
  55   2.0000      -0.450755       -12.2657
  56   2.0000      -0.441552       -12.0152
  57   2.0000      -0.438360       -11.9284
  58   2.0000      -0.434926       -11.8350
  59   2.0000      -0.432360       -11.7651
  60   2.0000      -0.428275       -11.6539
  61   2.0000      -0.423313       -11.5189
  62   2.0000      -0.419814       -11.4237
  63   2.0000      -0.414555       -11.2806
  64   2.0000      -0.411679       -11.2023
  65   2.0000      -0.402524       -10.9532
  66   2.0000      -0.387464       -10.5434
  67   2.0000      -0.372465       -10.1353
  68   2.0000      -0.355432        -9.6718
  69   2.0000      -0.349833        -9.5194
  70   2.0000      -0.307731        -8.3738
  71   2.0000      -0.303321        -8.2538
  72   2.0000      -0.294310        -8.0086
  73   2.0000      -0.282306        -7.6819
  74   2.0000      -0.274396        -7.4667
  75   2.0000      -0.266134        -7.2419
  76   2.0000      -0.252765        -6.8781
  77   2.0000      -0.244511        -6.6535
  78   2.0000      -0.231760        -6.3065
  79   2.0000      -0.214585        -5.8392
  80   0.0000      -0.119813        -3.2603
  81   0.0000      -0.100987        -2.7480
  82   0.0000      -0.065578        -1.7845
  83   0.0000      -0.061478        -1.6729
  84   0.0000      -0.051986        -1.4146

MULLIKEN ATOMIC CHARGES
-----------------------
   0 Re:   -0.407773
   1 C :    0.806347
   2 C :    0.681045
   3 C :    0.195738
   4 Br:   -0.559747
   5 O :   -0.391028
   6 O :   -0.321885
   7 O :   -0.293816
   8 C :   -0.648457
   9 C :    0.146239
  10 C :    1.630668
  11 C :    0.189494
  12 O :   -0.635492
  13 O :   -0.362775
  14 C :    0.010024
  15 O :   -0.553558
  16 H :    0.257568
  17 C :   -0.024587
  18 H :    0.074022
  19 H :    0.101897
  20 H :    0.099108
  21 H :   -0.058137
  22 H :   -0.032920
  23 H :    0.069079
  24 H :    0.028946
Sum of atomic charges:   -0.0000000

LOEWDIN ATOMIC CHARGES
----------------------
   0 Re:    0.629725
   1 C :   -0.281558
   2 C :   -0.314923
   3 C :   -0.285843
   4 Br:    0.182912
   5 O :    0.153281
   6 O :    0.142530
   7 O :    0.163324
   8 C :    0.051582
   9 C :    0.009776
  10 C :   -0.093818
  11 C :   -0.453053
  12 O :    0.154066
  13 O :    0.038416
  14 C :   -0.196584
  15 O :   -0.013399
  16 H :   -0.165568
  17 C :    0.177728
  18 H :    0.008899
  19 H :    0.012670
  20 H :    0.011388
  21 H :   -0.041668
  22 H :    0.057309
  23 H :    0.033903
  24 H :    0.018904

  Mayer bond orders larger than 0.100000
B(  0-Re,  1-C ) :   1.3209 B(  0-Re,  2-C ) :   1.2833 B(  0-Re,  3-C ) :   1.5539
B(  0-Re,  4-Br) :   0.3380 B(  0-Re,  5-O ) :   0.1188 B(  0-Re,  6-O ) :   0.1638
B(  0-Re,  7-O ) :   0.1152 B(  0-Re,  8-C ) :   0.2627 B(  0-Re,  9-C ) :   0.3638
B(  0-Re, 14-C ) :   0.5525 B(  0-Re, 15-O ) :   0.6119 B(  0-Re, 16-H ) :   0.1239
B(  1-C ,  3-C ) :  -0.1469 B(  1-C ,  6-O ) :   1.9607 B(  2-C ,  7-O ) :   1.9882
B(  3-C ,  5-O ) :   1.8082 B(  3-C ,  8-C ) :  -0.1259 B(  3-C , 14-C ) :   0.2087
B(  8-C ,  9-C ) :   1.9572 B(  8-C , 10-C ) :   0.4495 B(  8-C , 11-C ) :   0.1798
B(  8-C , 14-C ) :   0.1533 B(  8-C , 16-H ) :   0.1555 B(  8-C , 24-H ) :   1.1315
B(  9-C , 10-C ) :  -0.1399 B(  9-C , 16-H ) :   0.3958 B(  9-C , 21-H ) :   1.0600
B( 10-C , 11-C ) :   0.5975 B( 10-C , 13-O ) :   0.1113 B( 10-C , 14-C ) :   0.9350
B( 10-C , 15-O ) :   0.1105 B( 10-C , 22-H ) :   0.7150 B( 11-C , 12-O ) :   1.3527
B( 11-C , 13-O ) :   0.7563 B( 11-C , 14-C ) :   0.2929 B( 12-O , 13-O ) :   0.1318
B( 13-O , 17-C ) :   0.8639 B( 14-C , 15-O ) :   0.5817 B( 14-C , 23-H ) :   0.9169
B( 15-O , 16-H ) :   0.3439 B( 15-O , 23-H ) :  -0.1118 B( 17-C , 18-H ) :   1.0311
B( 17-C , 19-H ) :   0.9646 B( 17-C , 20-H ) :   0.9515

Dispersion correction           -0.047215014
FINAL SINGLE POINT ENERGY     -3452.087849444434

DIPOLE MOMENT
-------------
                                X             Y             Z
Electronic contribution:   -122.80711      28.87568       0.60407
Nuclear contribution   :    124.94821     -28.06424      -0.72382
                        -----------------------------------------
Total Dipole Moment    :      2.14109       0.81143      -0.11974
                        -----------------------------------------
Magnitude (a.u.)       :      2.29282
Magnitude (Debye)      :      5.82789

Rotational constants in cm-1:     0.017375     0.006623     0.006112
Rotational constants in MHz :   520.879987   198.539547   183.234187

                             ****ORCA TERMINATED NORMALLY****
TOTAL RUN TIME: 0 days 0 hours 0 minutes 31 seconds 450 msec
