                         Program Version 4.2.0 -  RELEASE  -
|  1> #
|  2> # TMB26_T1 TPSS-D3BJ/Def2-TZVPPD
|  3> #
|  4> ! tpss d3bj def2-tzvppd def2/j grid4 nofinalgrid
|  5>
|  6> *xyz 0 1
|  7> C       -2.466566    1.069840    0.238308
|  8> C       -2.451721    0.070166    1.223311
|  9> C       -3.390268   -0.966147    1.168446
| 10> C       -4.328348   -1.022612    0.143865
| 11> C       -4.333048   -0.013813   -0.819144
| 12> C       -3.403006    1.027077   -0.774806
| 13> H       -1.851874    0.172622    2.118430
| 14> H       -5.044959   -1.827220    0.098719
| 15> H       -3.408268    1.764270   -1.566273
| 16> C       -1.433505    2.123552    0.250561
| 17> C       -1.778108    3.466931    0.185146
| 18> C       -0.064979    1.782593    0.286078
| 19> C       -0.802488    4.453319    0.169404
| 20> H       -2.826505    3.739000    0.161874
| 21> C        0.907771    2.775168    0.263672
| 22> C        0.538977    4.108677    0.211691
| 23> H       -1.095064    5.495288    0.125305
| 24> H        1.951961    2.493561    0.298441
| 25> H        1.301937    4.876538    0.199556
| 26> C        0.257789    0.377788    0.312230
| 27> C       -0.304042   -0.722217    0.502541
| 28> H       -0.515543   -1.762216    0.625327
| 29> Au       2.138195   -0.491597   -0.140080
| 30> Cl       1.419476   -1.043843   -2.240555
| 31> Cl       4.263347   -1.139807   -0.651257
| 32> Cl       2.780432    0.097050    1.979491
| 33> O       -3.309425   -1.870502    2.160546
| 34> O       -5.195970    0.025756   -1.845512
| 35> C       -4.244039   -2.927838    2.190952
| 36> H       -4.158173   -3.562934    1.304307
| 37> H       -4.005337   -3.514103    3.075014
| 38> H       -5.267556   -2.550903    2.273203
| 39> C       -6.143948   -1.010635   -1.979012
| 40> H       -6.717344   -0.779100   -2.873359
| 41> H       -5.656738   -1.981777   -2.105696
| 42> H       -6.818943   -1.047780   -1.118843
| 43> *
| 44>
| 45> %maxcore 5000
| 46>
| 47> %pal
| 48> nprocs = 24
| 49> end
| 50>
| 51>
| 52>                          ****END OF INPUT****

CARTESIAN COORDINATES (ANGSTROEM)
---------------------------------
  C     -2.466566    1.069840    0.238308
  C     -2.451721    0.070166    1.223311
  C     -3.390268   -0.966147    1.168446
  C     -4.328348   -1.022612    0.143865
  C     -4.333048   -0.013813   -0.819144
  C     -3.403006    1.027077   -0.774806
  H     -1.851874    0.172622    2.118430
  H     -5.044959   -1.827220    0.098719
  H     -3.408268    1.764270   -1.566273
  C     -1.433505    2.123552    0.250561
  C     -1.778108    3.466931    0.185146
  C     -0.064979    1.782593    0.286078
  C     -0.802488    4.453319    0.169404
  H     -2.826505    3.739000    0.161874
  C      0.907771    2.775168    0.263672
  C      0.538977    4.108677    0.211691
  H     -1.095064    5.495288    0.125305
  H      1.951961    2.493561    0.298441
  H      1.301937    4.876538    0.199556
  C      0.257789    0.377788    0.312230
  C     -0.304042   -0.722217    0.502541
  H     -0.515543   -1.762216    0.625327
  Au     2.138195   -0.491597   -0.140080
  Cl     1.419476   -1.043843   -2.240555
  Cl     4.263347   -1.139807   -0.651257
  Cl     2.780432    0.097050    1.979491
  O     -3.309425   -1.870502    2.160546
  O     -5.195970    0.025756   -1.845512
  C     -4.244039   -2.927838    2.190952
  H     -4.158173   -3.562934    1.304307
  H     -4.005337   -3.514103    3.075014
  H     -5.267556   -2.550903    2.273203
  C     -6.143948   -1.010635   -1.979012
  H     -6.717344   -0.779100   -2.873359
  H     -5.656738   -1.981777   -2.105696
  H     -6.818943   -1.047780   -1.118843

 Total Charge           Charge          ....    0
 Multiplicity           Mult            ....    1
 Number of Electrons    NEL             ....  196
 Basis Dimension        Dim             .... 1122

ORBITAL ENERGIES
----------------

  NO   OCC          E(Eh)            E(eV)
   0   2.0000    -100.951114     -2747.0195
   1   2.0000    -100.950161     -2746.9935
   2   2.0000    -100.944232     -2746.8322
   3   2.0000     -18.954008      -515.7648
   4   2.0000     -18.952718      -515.7297
   5   2.0000     -10.085810      -274.4488
   6   2.0000     -10.085142      -274.4307
   7   2.0000     -10.071854      -274.0691
   8   2.0000     -10.070540      -274.0333
   9   2.0000     -10.063470      -273.8409
  10   2.0000     -10.050015      -273.4748
  11   2.0000     -10.037453      -273.1330
  12   2.0000     -10.034890      -273.0632
  13   2.0000     -10.029887      -272.9271
  14   2.0000     -10.020366      -272.6680
  15   2.0000     -10.020135      -272.6617
  16   2.0000     -10.014989      -272.5217
  17   2.0000     -10.013589      -272.4836
  18   2.0000     -10.013343      -272.4769
  19   2.0000     -10.010229      -272.3922
  20   2.0000     -10.010210      -272.3917
  21   2.0000      -9.200460      -250.3572
  22   2.0000      -9.199501      -250.3311
  23   2.0000      -9.193564      -250.1696
  24   2.0000      -6.978635      -189.8983
  25   2.0000      -6.977744      -189.8741
  26   2.0000      -6.972048      -189.7191
  27   2.0000      -6.970514      -189.6773
  28   2.0000      -6.969900      -189.6606
  29   2.0000      -6.969575      -189.6518
  30   2.0000      -6.968852      -189.6321
  31   2.0000      -6.963632      -189.4901
  32   2.0000      -6.962675      -189.4640
  33   2.0000      -4.122877      -112.1892
  34   2.0000      -2.336032       -63.5667
  35   2.0000      -2.333766       -63.5050
  36   2.0000      -2.310571       -62.8738
  37   2.0000      -1.045251       -28.4427
  38   2.0000      -1.043305       -28.3898
  39   2.0000      -0.850225       -23.1358
  40   2.0000      -0.823508       -22.4088
  41   2.0000      -0.781195       -21.2574
  42   2.0000      -0.753673       -20.5085
  43   2.0000      -0.746044       -20.3009
  44   2.0000      -0.724532       -19.7155
  45   2.0000      -0.715302       -19.4644
  46   2.0000      -0.707298       -19.2466
  47   2.0000      -0.705097       -19.1867
  48   2.0000      -0.704731       -19.1767
  49   2.0000      -0.700334       -19.0571
  50   2.0000      -0.665415       -18.1069
  51   2.0000      -0.613061       -16.6822
  52   2.0000      -0.600808       -16.3488
  53   2.0000      -0.585851       -15.9418
  54   2.0000      -0.565695       -15.3933
  55   2.0000      -0.544333       -14.8120
  56   2.0000      -0.531914       -14.4741
  57   2.0000      -0.502877       -13.6840
  58   2.0000      -0.498013       -13.5516
  59   2.0000      -0.482591       -13.1320
  60   2.0000      -0.476474       -12.9655
  61   2.0000      -0.467247       -12.7144
  62   2.0000      -0.460027       -12.5180
  63   2.0000      -0.456498       -12.4220
  64   2.0000      -0.452919       -12.3246
  65   2.0000      -0.431516       -11.7421
  66   2.0000      -0.420209       -11.4345
  67   2.0000      -0.417860       -11.3705
  68   2.0000      -0.412099       -11.2138
  69   2.0000      -0.409188       -11.1346
  70   2.0000      -0.401045       -10.9130
  71   2.0000      -0.398815       -10.8523
  72   2.0000      -0.387555       -10.5459
  73   2.0000      -0.377685       -10.2773
  74   2.0000      -0.374547       -10.1919
  75   2.0000      -0.366400        -9.9703
  76   2.0000      -0.360471        -9.8089
  77   2.0000      -0.356030        -9.6881
  78   2.0000      -0.348901        -9.4941
  79   2.0000      -0.343285        -9.3413
  80   2.0000      -0.339849        -9.2477
  81   2.0000      -0.331540        -9.0217
  82   2.0000      -0.325021        -8.8443
  83   2.0000      -0.321470        -8.7476
  84   2.0000      -0.315396        -8.5824
  85   2.0000      -0.303007        -8.2452
  86   2.0000      -0.298484        -8.1222
  87   2.0000      -0.288596        -7.8531
  88   2.0000      -0.264693        -7.2027
  89   2.0000      -0.262281        -7.1370
  90   2.0000      -0.250107        -6.8058
  91   2.0000      -0.248054        -6.7499
  92   2.0000      -0.235988        -6.4215
  93   2.0000      -0.233695        -6.3592
  94   2.0000      -0.233321        -6.3490
  95   2.0000      -0.228331        -6.2132
  96   2.0000      -0.222927        -6.0662
  97   2.0000      -0.221881        -6.0377
  98   0.0000      -0.148833        -4.0500
  99   0.0000      -0.102199        -2.7810
 100   0.0000      -0.083176        -2.2633
 101   0.0000      -0.069749        -1.8980
 102   0.0000      -0.047801        -1.3007

MULLIKEN ATOMIC CHARGES
-----------------------
   0 C :    1.230309
   1 C :   -0.232272
   2 C :    0.446638
   3 C :   -0.590626
   4 C :    0.251968
   5 C :   -0.442913
   6 H :    0.136650
   7 H :    0.111743
   8 H :    0.155965
   9 C :    0.249216
  10 C :    0.006991
  11 C :    1.044982
  12 C :   -0.284764
  13 H :    0.119965
  14 C :   -0.182862
  15 C :   -0.307229
  16 H :    0.089909
  17 H :   -0.005971
  18 H :    0.076578
  19 C :    0.200771
  20 C :    0.305105
  21 H :   -0.153008
  22 Au:   -0.111853
  23 Cl:   -0.480234
  24 Cl:   -0.412081
  25 Cl:   -0.499468
  26 O :   -0.536126
  27 O :   -0.514847
  28 C :   -0.163981
  29 H :    0.130018
  30 H :    0.040703
  31 H :    0.145668
  32 C :   -0.135953
  33 H :    0.039276
  34 H :    0.136654
  35 H :    0.135078
Sum of atomic charges:   -0.0000000

LOEWDIN ATOMIC CHARGES
----------------------
   0 C :   -0.126909
   1 C :    0.074066
   2 C :   -0.232044
   3 C :    0.130986
   4 C :   -0.221419
   5 C :    0.134809
   6 H :    0.036436
   7 H :   -0.015409
   8 H :    0.030287
   9 C :   -0.090637
  10 C :    0.068995
  11 C :   -0.151319
  12 C :    0.038060
  13 H :    0.015527
  14 C :    0.058358
  15 C :    0.041089
  16 H :    0.003582
  17 H :   -0.013938
  18 H :    0.005805
  19 C :   -0.341950
  20 C :    0.185184
  21 H :   -0.020621
  22 Au:    0.238672
  23 Cl:   -0.058410
  24 Cl:   -0.117399
  25 Cl:   -0.035720
  26 O :    0.009497
  27 O :    0.016181
  28 C :    0.134232
  29 H :    0.011480
  30 H :    0.012379
  31 H :    0.011668
  32 C :    0.133491
  33 H :    0.012072
  34 H :    0.012128
  35 H :    0.010791

  Mayer bond orders larger than 0.100000
B(  0-C ,  1-C ) :   0.4891 B(  0-C ,  3-C ) :  -0.3239 B(  0-C ,  4-C ) :  -0.1479
B(  0-C ,  5-C ) :   1.1161 B(  0-C ,  6-H ) :  -0.3943 B(  0-C ,  9-C ) :  -0.5490
B(  0-C , 10-C ) :  -0.1744 B(  0-C , 12-C ) :  -0.1518 B(  0-C , 14-C ) :  -0.1462
B(  0-C , 15-C ) :   0.1007 B(  1-C ,  2-C ) :   1.0565 B(  1-C ,  5-C ) :   0.1636
B(  1-C ,  6-H ) :   1.1965 B(  1-C ,  9-C ) :  -0.1991 B(  1-C , 10-C ) :   0.4141
B(  1-C , 14-C ) :  -0.1015 B(  1-C , 20-C ) :   0.3507 B(  2-C ,  3-C ) :   1.6337
B(  2-C ,  4-C ) :   0.1646 B(  2-C ,  6-H ) :   0.2894 B(  2-C , 10-C ) :  -0.3133
B(  2-C , 11-C ) :   0.1263 B(  2-C , 14-C ) :   0.1654 B(  2-C , 19-C ) :  -0.1072
B(  2-C , 26-O ) :   0.4035 B(  2-C , 28-C ) :  -0.1078 B(  3-C ,  4-C ) :   1.5570
B(  3-C ,  7-H ) :   0.8555 B(  3-C , 11-C ) :  -0.1122 B(  4-C ,  5-C ) :   1.4007
B(  4-C , 10-C ) :  -0.1892 B(  4-C , 11-C ) :   0.1189 B(  4-C , 27-O ) :   0.6256
B(  5-C ,  8-H ) :   0.9784 B(  5-C ,  9-C ) :  -0.2105 B(  5-C , 10-C ) :   0.2623
B(  5-C , 11-C ) :  -0.1754 B(  5-C , 20-C ) :   0.1245 B(  9-C , 10-C ) :   0.6559
B(  9-C , 11-C ) :   0.9455 B(  9-C , 14-C ) :   0.1070 B(  9-C , 19-C ) :  -0.1893
B( 10-C , 12-C ) :   1.3335 B( 10-C , 13-H ) :   0.9557 B( 11-C , 14-C ) :   0.8213
B( 11-C , 17-H ) :  -0.2579 B( 11-C , 19-C ) :   0.1323 B( 11-C , 22-Au) :  -0.7464
B( 11-C , 25-Cl) :  -0.2855 B( 12-C , 15-C ) :   1.3013 B( 12-C , 16-H ) :   1.0508
B( 14-C , 15-C ) :   1.3569 B( 14-C , 17-H ) :   1.1157 B( 15-C , 18-H ) :   1.0606
B( 19-C , 20-C ) :   1.5510 B( 19-C , 21-H ) :  -0.5632 B( 19-C , 22-Au) :   0.5195
B( 19-C , 25-Cl) :   0.3824 B( 20-C , 21-H ) :   1.5951 B( 20-C , 23-Cl) :  -0.3555
B( 20-C , 25-Cl) :  -0.4768 B( 22-Au, 23-Cl) :   1.0272 B( 22-Au, 24-Cl) :   0.7659
B( 22-Au, 25-Cl) :   1.0299 B( 23-Cl, 25-Cl) :   0.1633 B( 26-O , 28-C ) :   0.9797
B( 27-O , 32-C ) :   0.9536 B( 28-C , 29-H ) :   0.9499 B( 28-C , 30-H ) :   1.0601
B( 28-C , 31-H ) :   0.9501 B( 32-C , 33-H ) :   1.0546 B( 32-C , 34-H ) :   0.9574
B( 32-C , 35-H ) :   0.9541

Dispersion correction           -0.072765185
FINAL SINGLE POINT ENERGY     -2285.469406553867

DIPOLE MOMENT
-------------
                                X             Y             Z
Electronic contribution:    332.26282     -71.61327     -21.68971
Nuclear contribution   :   -337.50313      71.82916      22.27008
                        -----------------------------------------
Total Dipole Moment    :     -5.24031       0.21589       0.58037
                        -----------------------------------------
Magnitude (a.u.)       :      5.27676
Magnitude (Debye)      :     13.41247

Rotational constants in cm-1:     0.008801     0.003370     0.003018
Rotational constants in MHz :   263.837003   101.042363    90.466575

                             ****ORCA TERMINATED NORMALLY****
TOTAL RUN TIME: 0 days 0 hours 0 minutes 45 seconds 47 msec
