                         Program Version 4.2.0 -  RELEASE  -
|  1> #
|  2> # TMB20_T1 TPSS-D3BJ/Def2-TZVPPD
|  3> #
|  4> ! tpss d3bj def2-tzvppd def2/j grid4 nofinalgrid
|  5>
|  6> *xyz 0 1
|  7> Re       1.075850    0.159419    0.019780
|  8> C        2.196750   -0.403878   -1.423482
|  9> C        2.402994   -0.436307    1.215711
| 10> C        1.922458    1.855293   -0.011396
| 11> Br      -0.261613   -2.102343    0.064683
| 12> O        2.449833    2.881230   -0.022028
| 13> O        2.868443   -0.722069   -2.296753
| 14> O        3.210599   -0.792996    1.955405
| 15> C       -1.539667    1.495797    1.625423
| 16> C       -0.428781    0.920088    1.558456
| 17> C       -2.591644    1.677755   -0.408432
| 18> C       -3.343269    0.487162   -0.270226
| 19> O       -2.954237   -0.721219   -0.381568
| 20> O       -4.608112    0.658864    0.009021
| 21> C       -1.326616    1.715594   -1.019432
| 22> O       -0.664105    0.697605   -1.265770
| 23> H       -1.956019   -0.923705   -0.405218
| 24> C       -5.425994   -0.504251    0.214760
| 25> H       -6.403655   -0.115620    0.482117
| 26> H       -5.482311   -1.089893   -0.701194
| 27> H       -5.017526   -1.116193    1.017061
| 28> H        0.138084    0.692302    2.461523
| 29> H       -3.155110    2.594425   -0.305352
| 30> H       -2.375145    2.018826    2.037613
| 31> H       -0.897368    2.710605   -1.208716
| 32> *
| 33>
| 34> %maxcore 5000
| 35>
| 36> %pal
| 37> nprocs = 24
| 38> end
| 39>
| 40>
| 41>                          ****END OF INPUT****

CARTESIAN COORDINATES (ANGSTROEM)
---------------------------------
  Re     1.075850    0.159419    0.019780
  C      2.196750   -0.403878   -1.423482
  C      2.402994   -0.436307    1.215711
  C      1.922458    1.855293   -0.011396
  Br    -0.261613   -2.102343    0.064683
  O      2.449833    2.881230   -0.022028
  O      2.868443   -0.722069   -2.296753
  O      3.210599   -0.792996    1.955405
  C     -1.539667    1.495797    1.625423
  C     -0.428781    0.920088    1.558456
  C     -2.591644    1.677755   -0.408432
  C     -3.343269    0.487162   -0.270226
  O     -2.954237   -0.721219   -0.381568
  O     -4.608112    0.658864    0.009021
  C     -1.326616    1.715594   -1.019432
  O     -0.664105    0.697605   -1.265770
  H     -1.956019   -0.923705   -0.405218
  C     -5.425994   -0.504251    0.214760
  H     -6.403655   -0.115620    0.482117
  H     -5.482311   -1.089893   -0.701194
  H     -5.017526   -1.116193    1.017061
  H      0.138084    0.692302    2.461523
  H     -3.155110    2.594425   -0.305352
  H     -2.375145    2.018826    2.037613
  H     -0.897368    2.710605   -1.208716

 Total Charge           Charge          ....    0
 Multiplicity           Mult            ....    1
 Number of Electrons    NEL             ....  160
 Basis Dimension        Dim             ....  825

ORBITAL ENERGIES
----------------

  NO   OCC          E(Eh)            E(eV)
   0   2.0000    -481.679587    -13107.1679
   1   2.0000     -61.896034     -1684.2767
   2   2.0000     -55.728483     -1516.4491
   3   2.0000     -55.727828     -1516.4313
   4   2.0000     -55.727162     -1516.4132
   5   2.0000     -18.998671      -516.9801
   6   2.0000     -18.980517      -516.4861
   7   2.0000     -18.928691      -515.0759
   8   2.0000     -18.922915      -514.9187
   9   2.0000     -18.920849      -514.8625
  10   2.0000     -18.918037      -514.7859
  11   2.0000     -10.185604      -277.1644
  12   2.0000     -10.107283      -275.0332
  13   2.0000     -10.091085      -274.5924
  14   2.0000     -10.066891      -273.9340
  15   2.0000     -10.063665      -273.8462
  16   2.0000     -10.062338      -273.8101
  17   2.0000     -10.056901      -273.6622
  18   2.0000     -10.043754      -273.3044
  19   2.0000     -10.014531      -272.5093
  20   2.0000      -8.425915      -229.2808
  21   2.0000      -6.265526      -170.4936
  22   2.0000      -6.262797      -170.4194
  23   2.0000      -6.261251      -170.3773
  24   2.0000      -3.090401       -84.0941
  25   2.0000      -2.433258       -66.2123
  26   2.0000      -2.432980       -66.2047
  27   2.0000      -2.431609       -66.1674
  28   2.0000      -2.429592       -66.1126
  29   2.0000      -2.429362       -66.1063
  30   2.0000      -1.683002       -45.7968
  31   2.0000      -1.677501       -45.6471
  32   2.0000      -1.676560       -45.6215
  33   2.0000      -1.126241       -30.6466
  34   2.0000      -1.045182       -28.4408
  35   2.0000      -1.034724       -28.1563
  36   2.0000      -1.027958       -27.9722
  37   2.0000      -1.026286       -27.9267
  38   2.0000      -1.015186       -27.6246
  39   2.0000      -0.793045       -21.5799
  40   2.0000      -0.744549       -20.2602
  41   2.0000      -0.720586       -19.6081
  42   2.0000      -0.669626       -18.2214
  43   2.0000      -0.635414       -17.2905
  44   2.0000      -0.613386       -16.6911
  45   2.0000      -0.561872       -15.2893
  46   2.0000      -0.554224       -15.0812
  47   2.0000      -0.524104       -14.2616
  48   2.0000      -0.507756       -13.8167
  49   2.0000      -0.501523       -13.6471
  50   2.0000      -0.494139       -13.4462
  51   2.0000      -0.489785       -13.3277
  52   2.0000      -0.488095       -13.2817
  53   2.0000      -0.466926       -12.7057
  54   2.0000      -0.446286       -12.1440
  55   2.0000      -0.444667       -12.1000
  56   2.0000      -0.431403       -11.7391
  57   2.0000      -0.417542       -11.3619
  58   2.0000      -0.406836       -11.0706
  59   2.0000      -0.402423       -10.9505
  60   2.0000      -0.400094       -10.8871
  61   2.0000      -0.395928       -10.7738
  62   2.0000      -0.392310       -10.6753
  63   2.0000      -0.388166       -10.5625
  64   2.0000      -0.381543       -10.3823
  65   2.0000      -0.379008       -10.3133
  66   2.0000      -0.377301       -10.2669
  67   2.0000      -0.374719       -10.1966
  68   2.0000      -0.372424       -10.1342
  69   2.0000      -0.348186        -9.4746
  70   2.0000      -0.314614        -8.5611
  71   2.0000      -0.304690        -8.2910
  72   2.0000      -0.285830        -7.7778
  73   2.0000      -0.268970        -7.3191
  74   2.0000      -0.263406        -7.1676
  75   2.0000      -0.243421        -6.6238
  76   2.0000      -0.239675        -6.5219
  77   2.0000      -0.205746        -5.5986
  78   2.0000      -0.200713        -5.4617
  79   2.0000      -0.194382        -5.2894
  80   0.0000      -0.125360        -3.4112
  81   0.0000      -0.117210        -3.1894
  82   0.0000      -0.056853        -1.5471
  83   0.0000      -0.049803        -1.3552
  84   0.0000      -0.033750        -0.9184

MULLIKEN ATOMIC CHARGES
-----------------------
   0 Re:   -0.223240
   1 C :    0.740184
   2 C :    0.499917
   3 C :    0.310566
   4 Br:   -0.648663
   5 O :   -0.415680
   6 O :   -0.370103
   7 O :   -0.400296
   8 C :   -0.545101
   9 C :    0.703720
  10 C :   -0.409781
  11 C :    1.201800
  12 O :   -0.470982
  13 O :   -0.370183
  14 C :    0.475143
  15 O :   -0.759898
  16 H :    0.312650
  17 C :   -0.007785
  18 H :    0.059044
  19 H :    0.102963
  20 H :    0.110937
  21 H :   -0.039842
  22 H :    0.100550
  23 H :    0.035956
  24 H :    0.008124
Sum of atomic charges:   -0.0000000

LOEWDIN ATOMIC CHARGES
----------------------
   0 Re:    0.569346
   1 C :   -0.307402
   2 C :   -0.359307
   3 C :   -0.304309
   4 Br:    0.247381
   5 O :    0.095524
   6 O :    0.119775
   7 O :    0.102484
   8 C :    0.192401
   9 C :   -0.066568
  10 C :    0.047236
  11 C :   -0.364491
  12 O :    0.323447
  13 O :    0.074816
  14 C :   -0.199337
  15 O :   -0.119557
  16 H :   -0.307980
  17 C :    0.206941
  18 H :    0.014375
  19 H :    0.017686
  20 H :    0.018179
  21 H :   -0.034906
  22 H :    0.025093
  23 H :   -0.036639
  24 H :    0.045811

  Mayer bond orders larger than 0.100000
B(  0-Re,  1-C ) :   1.3854 B(  0-Re,  2-C ) :   1.5685 B(  0-Re,  3-C ) :   1.5921
B(  0-Re,  4-Br) :   0.2768 B(  0-Re,  5-O ) :   0.1620 B(  0-Re,  6-O ) :   0.1740
B(  0-Re,  7-O ) :   0.1824 B(  0-Re,  9-C ) :   0.6262 B(  0-Re, 15-O ) :   0.2949
B(  1-C ,  2-C ) :  -0.1106 B(  1-C ,  6-O ) :   1.8856 B(  1-C ,  8-C ) :   0.2044
B(  1-C ,  9-C ) :  -0.1795 B(  2-C ,  3-C ) :  -0.1166 B(  2-C ,  4-Br) :   0.1543
B(  2-C ,  7-O ) :   1.8222 B(  3-C ,  5-O ) :   1.8255 B(  8-C ,  9-C ) :   1.9590
B(  8-C , 10-C ) :   0.1522 B(  8-C , 11-C ) :   0.1499 B(  8-C , 14-C ) :   0.1577
B(  8-C , 21-H ) :   0.2155 B(  8-C , 23-H ) :   1.2552 B(  9-C , 21-H ) :   0.8005
B(  9-C , 23-H ) :  -0.2234 B( 10-C , 11-C ) :   0.8571 B( 10-C , 14-C ) :   1.2850
B( 10-C , 15-O ) :   0.1380 B( 10-C , 22-H ) :   1.1190 B( 11-C , 12-O ) :   0.8058
B( 11-C , 13-O ) :   0.7203 B( 12-O , 16-H ) :   0.7643 B( 13-O , 17-C ) :   0.9046
B( 14-C , 15-O ) :   1.1001 B( 14-C , 24-H ) :   1.0038 B( 17-C , 18-H ) :   1.0271
B( 17-C , 19-H ) :   0.9569 B( 17-C , 20-H ) :   0.9579

Dispersion correction           -0.048034630
FINAL SINGLE POINT ENERGY     -3452.063447625779

DIPOLE MOMENT
-------------
                                X             Y             Z
Electronic contribution:    156.31939       7.09835       1.51731
Nuclear contribution   :   -160.68759      -5.62073      -0.99353
                        -----------------------------------------
Total Dipole Moment    :     -4.36821       1.47762       0.52378
                        -----------------------------------------
Magnitude (a.u.)       :      4.64101
Magnitude (Debye)      :     11.79650

Rotational constants in cm-1:     0.016566     0.007303     0.006214
Rotational constants in MHz :   496.645586   218.925333   186.291690

                             ****ORCA TERMINATED NORMALLY****
TOTAL RUN TIME: 0 days 0 hours 0 minutes 29 seconds 128 msec
