                         Program Version 4.2.0 -  RELEASE  -
|  1> #
|  2> # TMB29_C2 TPSS-D3BJ/Def2-TZVPPD
|  3> #
|  4> ! tpss d3bj def2-tzvppd def2/j grid4 nofinalgrid
|  5>
|  6> *xyz 1 1
|  7> C        0.315194   -1.265840   -0.205097
|  8> C        1.442343   -0.626838    0.044790
|  9> C        0.309905   -2.700146   -0.639207
| 10> H        1.304587   -3.137496   -0.733589
| 11> H       -0.263876   -3.299051    0.071387
| 12> H       -0.202915   -2.796953   -1.598442
| 13> C        1.798588    0.767906    0.516696
| 14> O        3.282693    0.709723    0.495405
| 15> C        3.659486   -0.471899    0.173285
| 16> O        2.736849   -1.295199   -0.102354
| 17> C        1.344136    1.838147   -0.506262
| 18> O        0.287215    2.374668   -0.320274
| 19> C        2.219880    2.103298   -1.689301
| 20> H        2.470349    1.173144   -2.206730
| 21> H        1.702341    2.771806   -2.372494
| 22> H        3.157528    2.564787   -1.369834
| 23> C        5.078697   -0.839761    0.144564
| 24> H        5.213504   -1.795905   -0.353509
| 25> H        5.652959   -0.054437   -0.347617
| 26> H        5.438400   -0.910855    1.175413
| 27> C        1.364152    1.101522    1.920814
| 28> H        1.754676    2.072052    2.227431
| 29> H        0.275994    1.149047    1.931402
| 30> H        1.690154    0.330993    2.618895
| 31> Au      -1.496985   -0.316099   -0.013075
| 32> P       -3.546234    0.682452    0.150815
| 33> H       -3.831804    1.712524   -0.762172
| 34> H       -4.687337   -0.122280   -0.012331
| 35> H       -3.867595    1.325764    1.359005
| 36> *
| 37>
| 38> %maxcore 5000
| 39>
| 40> %pal
| 41> nprocs = 24
| 42> end
| 43>
| 44>
| 45>                          ****END OF INPUT****

CARTESIAN COORDINATES (ANGSTROEM)
---------------------------------
  C      0.315194   -1.265840   -0.205097
  C      1.442343   -0.626838    0.044790
  C      0.309905   -2.700146   -0.639207
  H      1.304587   -3.137496   -0.733589
  H     -0.263876   -3.299051    0.071387
  H     -0.202915   -2.796953   -1.598442
  C      1.798588    0.767906    0.516696
  O      3.282693    0.709723    0.495405
  C      3.659486   -0.471899    0.173285
  O      2.736849   -1.295199   -0.102354
  C      1.344136    1.838147   -0.506262
  O      0.287215    2.374668   -0.320274
  C      2.219880    2.103298   -1.689301
  H      2.470349    1.173144   -2.206730
  H      1.702341    2.771806   -2.372494
  H      3.157528    2.564787   -1.369834
  C      5.078697   -0.839761    0.144564
  H      5.213504   -1.795905   -0.353509
  H      5.652959   -0.054437   -0.347617
  H      5.438400   -0.910855    1.175413
  C      1.364152    1.101522    1.920814
  H      1.754676    2.072052    2.227431
  H      0.275994    1.149047    1.931402
  H      1.690154    0.330993    2.618895
  Au    -1.496985   -0.316099   -0.013075
  P     -3.546234    0.682452    0.150815
  H     -3.831804    1.712524   -0.762172
  H     -4.687337   -0.122280   -0.012331
  H     -3.867595    1.325764    1.359005

 Total Charge           Charge          ....    1
 Multiplicity           Mult            ....    1
 Number of Electrons    NEL             ....  126
 Basis Dimension        Dim             ....  815

ORBITAL ENERGIES
----------------

  NO   OCC          E(Eh)            E(eV)
   0   2.0000     -76.747891     -2088.4163
   1   2.0000     -19.132716      -520.6277
   2   2.0000     -19.126397      -520.4557
   3   2.0000     -19.012858      -517.3662
   4   2.0000     -10.312649      -280.6215
   5   2.0000     -10.222380      -278.1651
   6   2.0000     -10.209886      -277.8251
   7   2.0000     -10.185647      -277.1656
   8   2.0000     -10.164452      -276.5888
   9   2.0000     -10.123587      -275.4768
  10   2.0000     -10.119120      -275.3553
  11   2.0000     -10.118930      -275.3501
  12   2.0000     -10.098961      -274.8067
  13   2.0000      -6.524716      -177.5466
  14   2.0000      -4.701668      -127.9389
  15   2.0000      -4.701654      -127.9385
  16   2.0000      -4.699698      -127.8853
  17   2.0000      -4.159395      -113.1829
  18   2.0000      -2.378548       -64.7236
  19   2.0000      -2.359192       -64.1969
  20   2.0000      -2.358089       -64.1669
  21   2.0000      -1.281596       -34.8740
  22   2.0000      -1.175502       -31.9870
  23   2.0000      -1.120587       -30.4927
  24   2.0000      -0.939197       -25.5569
  25   2.0000      -0.865891       -23.5621
  26   2.0000      -0.857052       -23.3216
  27   2.0000      -0.826547       -22.4915
  28   2.0000      -0.778098       -21.1731
  29   2.0000      -0.752350       -20.4725
  30   2.0000      -0.749852       -20.4045
  31   2.0000      -0.732130       -19.9223
  32   2.0000      -0.689424       -18.7602
  33   2.0000      -0.674636       -18.3578
  34   2.0000      -0.635306       -17.2876
  35   2.0000      -0.602154       -16.3854
  36   2.0000      -0.574672       -15.6376
  37   2.0000      -0.556350       -15.1391
  38   2.0000      -0.552589       -15.0367
  39   2.0000      -0.544513       -14.8170
  40   2.0000      -0.536923       -14.6104
  41   2.0000      -0.534942       -14.5565
  42   2.0000      -0.529260       -14.4019
  43   2.0000      -0.520648       -14.1676
  44   2.0000      -0.510086       -13.8801
  45   2.0000      -0.509580       -13.8664
  46   2.0000      -0.508037       -13.8244
  47   2.0000      -0.502273       -13.6676
  48   2.0000      -0.500042       -13.6068
  49   2.0000      -0.491655       -13.3786
  50   2.0000      -0.482944       -13.1416
  51   2.0000      -0.478414       -13.0183
  52   2.0000      -0.471933       -12.8419
  53   2.0000      -0.459296       -12.4981
  54   2.0000      -0.454554       -12.3691
  55   2.0000      -0.414227       -11.2717
  56   2.0000      -0.399212       -10.8631
  57   2.0000      -0.387284       -10.5385
  58   2.0000      -0.384128       -10.4526
  59   2.0000      -0.383201       -10.4274
  60   2.0000      -0.367651       -10.0043
  61   2.0000      -0.347565        -9.4577
  62   2.0000      -0.336260        -9.1501
  63   0.0000      -0.233307        -6.3486
  64   0.0000      -0.196764        -5.3542
  65   0.0000      -0.164432        -4.4744
  66   0.0000      -0.152220        -4.1421
  67   0.0000      -0.136707        -3.7200

MULLIKEN ATOMIC CHARGES
-----------------------
   0 C :    0.360800
   1 C :   -0.620913
   2 C :   -0.368308
   3 H :    0.052066
   4 H :    0.115661
   5 H :    0.108949
   6 C :    2.268762
   7 O :   -0.349952
   8 C :    0.679365
   9 O :   -0.382362
  10 C :    0.464699
  11 O :   -0.552465
  12 C :   -0.309954
  13 H :    0.107762
  14 H :    0.007765
  15 H :    0.109505
  16 C :   -0.306505
  17 H :    0.075436
  18 H :    0.068746
  19 H :    0.059485
  20 C :   -0.421768
  21 H :    0.028953
  22 H :    0.024633
  23 H :    0.087285
  24 Au:   -0.619917
  25 P :    0.040143
  26 H :    0.094983
  27 H :    0.088637
  28 H :    0.088507
Sum of atomic charges:    1.0000000

LOEWDIN ATOMIC CHARGES
----------------------
   0 C :   -0.270572
   1 C :   -0.180077
   2 C :    0.103447
   3 H :   -0.017889
   4 H :   -0.012240
   5 H :   -0.013476
   6 C :   -0.269646
   7 O :    0.175569
   8 C :   -0.319178
   9 O :    0.200504
  10 C :   -0.328613
  11 O :    0.112187
  12 C :    0.245743
  13 H :    0.008562
  14 H :    0.010190
  15 H :    0.010808
  16 C :    0.307335
  17 H :    0.022659
  18 H :    0.026766
  19 H :    0.033281
  20 C :    0.237056
  21 H :    0.019110
  22 H :   -0.013132
  23 H :    0.016640
  24 Au:    0.585778
  25 P :    0.822138
  26 H :   -0.168717
  27 H :   -0.173002
  28 H :   -0.171229

  Mayer bond orders larger than 0.100000
B(  0-C ,  1-C ) :   0.9062 B(  0-C ,  2-C ) :   1.0250 B(  0-C ,  9-O ) :   0.2080
B(  0-C , 24-Au) :   0.8972 B(  1-C ,  9-O ) :   0.4712 B(  1-C , 10-C ) :   0.3720
B(  1-C , 12-C ) :   0.1194 B(  1-C , 20-C ) :   0.2831 B(  1-C , 22-H ) :   0.1135
B(  1-C , 24-Au) :  -0.5146 B(  2-C ,  3-H ) :   1.0091 B(  2-C ,  4-H ) :   0.9237
B(  2-C ,  5-H ) :   0.9277 B(  2-C , 24-Au) :   0.1463 B(  6-C ,  7-O ) :   0.3452
B(  6-C ,  8-C ) :  -0.1077 B(  6-C , 10-C ) :   0.3189 B(  6-C , 11-O ) :   0.1590
B(  6-C , 20-C ) :   0.7901 B(  7-O ,  8-C ) :   1.2106 B(  7-O ,  9-O ) :   0.1414
B(  8-C ,  9-O ) :   1.0775 B(  8-C , 16-C ) :   1.2167 B(  9-O , 16-C ) :  -0.1159
B( 10-C , 11-O ) :   1.1851 B( 10-C , 12-C ) :   1.2111 B( 11-O , 12-C ) :   0.1280
B( 12-C , 13-H ) :   0.9117 B( 12-C , 14-H ) :   1.0721 B( 12-C , 15-H ) :   0.8973
B( 16-C , 17-H ) :   0.9742 B( 16-C , 18-H ) :   0.9541 B( 16-C , 19-H ) :   0.9233
B( 20-C , 21-H ) :   0.9690 B( 20-C , 22-H ) :   0.8808 B( 20-C , 23-H ) :   0.9674
B( 24-Au, 25-P ) :   0.9832 B( 25-P , 26-H ) :   0.9350 B( 25-P , 27-H ) :   0.9330
B( 25-P , 28-H ) :   0.9359

Dispersion correction           -0.044619646
FINAL SINGLE POINT ENERGY     -1054.906049714627

DIPOLE MOMENT
-------------
                                X             Y             Z
Electronic contribution:   -213.36534     -43.39814      -1.32341
Nuclear contribution   :    216.19870      43.43467       1.47956
                        -----------------------------------------
Total Dipole Moment    :      2.83337       0.03653       0.15615
                        -----------------------------------------
Magnitude (a.u.)       :      2.83790
Magnitude (Debye)      :      7.21337

Rotational constants in cm-1:     0.028648     0.008219     0.007101
Rotational constants in MHz :   858.848987   246.390678   212.872024

                             ****ORCA TERMINATED NORMALLY****
TOTAL RUN TIME: 0 days 0 hours 0 minutes 26 seconds 709 msec
