                         Program Version 4.2.0 -  RELEASE  -
|  1> #
|  2> # TMB26_C1 TPSS-D3BJ/Def2-TZVPPD
|  3> #
|  4> ! tpss d3bj def2-tzvppd def2/j grid4 nofinalgrid
|  5>
|  6> *xyz 0 1
|  7> C        2.167128    1.329895    0.039526
|  8> C        2.525644    0.739273   -1.166486
|  9> C        3.439975   -0.306708   -1.174383
| 10> C        3.999633   -0.766755    0.014468
| 11> C        3.640245   -0.158436    1.215781
| 12> C        2.734668    0.894978    1.231934
| 13> H        2.127840    1.087811   -2.109674
| 14> H        4.700013   -1.586902    0.006791
| 15> H        2.446371    1.320973    2.183519
| 16> C        1.181573    2.421289    0.068499
| 17> C        1.441057    3.589123    0.775147
| 18> C       -0.063177    2.327678   -0.606474
| 19> C        0.528793    4.632414    0.796916
| 20> H        2.386085    3.685262    1.294444
| 21> C       -0.980026    3.398239   -0.582106
| 22> C       -0.681931    4.545260    0.115481
| 23> H        0.768969    5.533734    1.348653
| 24> H       -1.927777    3.275890   -1.088947
| 25> H       -1.387173    5.365524    0.142831
| 26> C       -0.458921    1.154963   -1.244997
| 27> C       -0.929867    0.115196   -1.736149
| 28> H       -0.939302   -0.474790   -2.633558
| 29> Au      -1.934281   -0.752855   -0.093938
| 30> Cl      -0.307197   -2.360512   -0.181170
| 31> Cl      -3.051038   -1.907317    1.520981
| 32> Cl      -3.535590    0.885204   -0.082121
| 33> O        3.733505   -0.820421   -2.387318
| 34> O        4.122752   -0.537296    2.416831
| 35> C        4.611393   -1.919557   -2.452177
| 36> H        4.218896   -2.777901   -1.898414
| 37> H        4.691177   -2.180906   -3.505103
| 38> H        5.605429   -1.663635   -2.071314
| 39> C        4.983111   -1.650773    2.472584
| 40> H        5.218240   -1.797897    3.524384
| 41> H        4.497038   -2.550975    2.084317
| 42> H        5.911564   -1.470782    1.920934
| 43> *
| 44>
| 45> %maxcore 5000
| 46>
| 47> %pal
| 48> nprocs = 24
| 49> end
| 50>
| 51>
| 52>                          ****END OF INPUT****

CARTESIAN COORDINATES (ANGSTROEM)
---------------------------------
  C      2.167128    1.329895    0.039526
  C      2.525644    0.739273   -1.166486
  C      3.439975   -0.306708   -1.174383
  C      3.999633   -0.766755    0.014468
  C      3.640245   -0.158436    1.215781
  C      2.734668    0.894978    1.231934
  H      2.127840    1.087811   -2.109674
  H      4.700013   -1.586902    0.006791
  H      2.446371    1.320973    2.183519
  C      1.181573    2.421289    0.068499
  C      1.441057    3.589123    0.775147
  C     -0.063177    2.327678   -0.606474
  C      0.528793    4.632414    0.796916
  H      2.386085    3.685262    1.294444
  C     -0.980026    3.398239   -0.582106
  C     -0.681931    4.545260    0.115481
  H      0.768969    5.533734    1.348653
  H     -1.927777    3.275890   -1.088947
  H     -1.387173    5.365524    0.142831
  C     -0.458921    1.154963   -1.244997
  C     -0.929867    0.115196   -1.736149
  H     -0.939302   -0.474790   -2.633558
  Au    -1.934281   -0.752855   -0.093938
  Cl    -0.307197   -2.360512   -0.181170
  Cl    -3.051038   -1.907317    1.520981
  Cl    -3.535590    0.885204   -0.082121
  O      3.733505   -0.820421   -2.387318
  O      4.122752   -0.537296    2.416831
  C      4.611393   -1.919557   -2.452177
  H      4.218896   -2.777901   -1.898414
  H      4.691177   -2.180906   -3.505103
  H      5.605429   -1.663635   -2.071314
  C      4.983111   -1.650773    2.472584
  H      5.218240   -1.797897    3.524384
  H      4.497038   -2.550975    2.084317
  H      5.911564   -1.470782    1.920934

 Total Charge           Charge          ....    0
 Multiplicity           Mult            ....    1
 Number of Electrons    NEL             ....  196
 Basis Dimension        Dim             .... 1122

ORBITAL ENERGIES
----------------

  NO   OCC          E(Eh)            E(eV)
   0   2.0000    -100.953633     -2747.0880
   1   2.0000    -100.952787     -2747.0650
   2   2.0000    -100.948669     -2746.9529
   3   2.0000     -18.931099      -515.1414
   4   2.0000     -18.930393      -515.1222
   5   2.0000     -10.065174      -273.8873
   6   2.0000     -10.062237      -273.8074
   7   2.0000     -10.062182      -273.8059
   8   2.0000     -10.054002      -273.5833
   9   2.0000     -10.053729      -273.5759
  10   2.0000     -10.053201      -273.5615
  11   2.0000     -10.047902      -273.4173
  12   2.0000     -10.042446      -273.2688
  13   2.0000     -10.036791      -273.1150
  14   2.0000     -10.035953      -273.0922
  15   2.0000     -10.026461      -272.8339
  16   2.0000     -10.025946      -272.8199
  17   2.0000     -10.020878      -272.6819
  18   2.0000     -10.002315      -272.1768
  19   2.0000      -9.997021      -272.0328
  20   2.0000      -9.995082      -271.9800
  21   2.0000      -9.203037      -250.4274
  22   2.0000      -9.202117      -250.4023
  23   2.0000      -9.197939      -250.2887
  24   2.0000      -6.981157      -189.9669
  25   2.0000      -6.980377      -189.9457
  26   2.0000      -6.976727      -189.8464
  27   2.0000      -6.973015      -189.7454
  28   2.0000      -6.972603      -189.7342
  29   2.0000      -6.972039      -189.7188
  30   2.0000      -6.971616      -189.7073
  31   2.0000      -6.967774      -189.6028
  32   2.0000      -6.966996      -189.5816
  33   2.0000      -4.121317      -112.1467
  34   2.0000      -2.334878       -63.5353
  35   2.0000      -2.333262       -63.4913
  36   2.0000      -2.307868       -62.8003
  37   2.0000      -1.022705       -27.8292
  38   2.0000      -1.020828       -27.7781
  39   2.0000      -0.856556       -23.3081
  40   2.0000      -0.814846       -22.1731
  41   2.0000      -0.784720       -21.3533
  42   2.0000      -0.755463       -20.5572
  43   2.0000      -0.733303       -19.9542
  44   2.0000      -0.727398       -19.7935
  45   2.0000      -0.722792       -19.6682
  46   2.0000      -0.710129       -19.3236
  47   2.0000      -0.708625       -19.2827
  48   2.0000      -0.700439       -19.0599
  49   2.0000      -0.682698       -18.5772
  50   2.0000      -0.648977       -17.6595
  51   2.0000      -0.627357       -17.0713
  52   2.0000      -0.607741       -16.5375
  53   2.0000      -0.569110       -15.4863
  54   2.0000      -0.563041       -15.3211
  55   2.0000      -0.538417       -14.6511
  56   2.0000      -0.518522       -14.1097
  57   2.0000      -0.499286       -13.5863
  58   2.0000      -0.484459       -13.1828
  59   2.0000      -0.470281       -12.7970
  60   2.0000      -0.466324       -12.6893
  61   2.0000      -0.461103       -12.5472
  62   2.0000      -0.450654       -12.2629
  63   2.0000      -0.446051       -12.1377
  64   2.0000      -0.440445       -11.9851
  65   2.0000      -0.433962       -11.8087
  66   2.0000      -0.427968       -11.6456
  67   2.0000      -0.423486       -11.5236
  68   2.0000      -0.407415       -11.0863
  69   2.0000      -0.405025       -11.0213
  70   2.0000      -0.394959       -10.7474
  71   2.0000      -0.394319       -10.7300
  72   2.0000      -0.380106       -10.3432
  73   2.0000      -0.372173       -10.1273
  74   2.0000      -0.367310        -9.9950
  75   2.0000      -0.363069        -9.8796
  76   2.0000      -0.358978        -9.7683
  77   2.0000      -0.352503        -9.5921
  78   2.0000      -0.350199        -9.5294
  79   2.0000      -0.343686        -9.3522
  80   2.0000      -0.332208        -9.0398
  81   2.0000      -0.326975        -8.8974
  82   2.0000      -0.317263        -8.6332
  83   2.0000      -0.307492        -8.3673
  84   2.0000      -0.305523        -8.3137
  85   2.0000      -0.302223        -8.2239
  86   2.0000      -0.296403        -8.0655
  87   2.0000      -0.282809        -7.6956
  88   2.0000      -0.276722        -7.5300
  89   2.0000      -0.265699        -7.2300
  90   2.0000      -0.262904        -7.1540
  91   2.0000      -0.248036        -6.7494
  92   2.0000      -0.236301        -6.4301
  93   2.0000      -0.234917        -6.3924
  94   2.0000      -0.230149        -6.2627
  95   2.0000      -0.229068        -6.2333
  96   2.0000      -0.226683        -6.1684
  97   2.0000      -0.203124        -5.5273
  98   0.0000      -0.164826        -4.4851
  99   0.0000      -0.108305        -2.9471
 100   0.0000      -0.080647        -2.1945
 101   0.0000      -0.047258        -1.2860
 102   0.0000      -0.037686        -1.0255

MULLIKEN ATOMIC CHARGES
-----------------------
   0 C :    1.077391
   1 C :   -0.450029
   2 C :    0.356992
   3 C :   -0.514264
   4 C :    0.349364
   5 C :   -0.414097
   6 H :    0.177168
   7 H :    0.108819
   8 H :    0.159170
   9 C :    0.490986
  10 C :    0.065038
  11 C :    0.122770
  12 C :   -0.216186
  13 H :    0.135440
  14 C :   -0.224267
  15 C :   -0.159535
  16 H :    0.084684
  17 H :    0.120738
  18 H :    0.088702
  19 C :    0.816837
  20 C :   -0.484974
  21 H :    0.039869
  22 Au:    0.289201
  23 Cl:   -0.454938
  24 Cl:   -0.323292
  25 Cl:   -0.477823
  26 O :   -0.545546
  27 O :   -0.537899
  28 C :   -0.144559
  29 H :    0.128191
  30 H :    0.036408
  31 H :    0.133618
  32 C :   -0.140769
  33 H :    0.038437
  34 H :    0.138294
  35 H :    0.130060
Sum of atomic charges:   -0.0000000

LOEWDIN ATOMIC CHARGES
----------------------
   0 C :   -0.137578
   1 C :    0.112197
   2 C :   -0.229054
   3 C :    0.129145
   4 C :   -0.228849
   5 C :    0.118812
   6 H :    0.024101
   7 H :   -0.016791
   8 H :    0.024377
   9 C :   -0.075950
  10 C :    0.080307
  11 C :   -0.150739
  12 C :    0.062185
  13 H :    0.018606
  14 C :    0.072884
  15 C :    0.049507
  16 H :    0.009836
  17 H :    0.000316
  18 H :    0.008328
  19 C :   -0.055864
  20 C :   -0.080341
  21 H :   -0.045415
  22 Au:    0.216280
  23 Cl:   -0.063315
  24 Cl:   -0.111257
  25 Cl:   -0.044065
  26 O :    0.002012
  27 O :    0.004273
  28 C :    0.122533
  29 H :    0.011999
  30 H :    0.009848
  31 H :    0.008608
  32 C :    0.122707
  33 H :    0.010108
  34 H :    0.012100
  35 H :    0.008148

  Mayer bond orders larger than 0.100000
B(  0-C ,  1-C ) :   0.7168 B(  0-C ,  3-C ) :  -0.2043 B(  0-C ,  4-C ) :  -0.1685
B(  0-C ,  5-C ) :   0.9533 B(  0-C ,  6-H ) :  -0.1993 B(  0-C ,  8-H ) :  -0.1203
B(  0-C ,  9-C ) :  -0.3610 B(  0-C , 10-C ) :  -0.2503 B(  0-C , 11-C ) :  -0.2865
B(  0-C , 12-C ) :  -0.1465 B(  0-C , 14-C ) :  -0.2196 B(  0-C , 19-C ) :   0.1364
B(  1-C ,  2-C ) :   1.6008 B(  1-C ,  5-C ) :   0.1836 B(  1-C ,  6-H ) :   0.9496
B(  1-C , 10-C ) :   0.2420 B(  1-C , 14-C ) :  -0.1508 B(  1-C , 19-C ) :   0.1522
B(  2-C ,  3-C ) :   1.4965 B(  2-C ,  6-H ) :   0.2067 B(  2-C ,  9-C ) :  -0.1881
B(  2-C , 10-C ) :  -0.1793 B(  2-C , 14-C ) :   0.1352 B(  2-C , 26-O ) :   0.4520
B(  3-C ,  4-C ) :   1.4917 B(  3-C ,  7-H ) :   0.8333 B(  4-C ,  5-C ) :   1.5294
B(  4-C ,  8-H ) :   0.1134 B(  4-C ,  9-C ) :  -0.1090 B(  4-C , 27-O ) :   0.5314
B(  5-C ,  8-H ) :   0.9564 B(  5-C ,  9-C ) :  -0.2527 B(  5-C , 10-C ) :   0.2175
B(  5-C , 11-C ) :  -0.1531 B(  9-C , 10-C ) :   0.8187 B(  9-C , 11-C ) :   0.8186
B(  9-C , 14-C ) :   0.1333 B(  9-C , 19-C ) :  -0.6978 B(  9-C , 20-C ) :   0.4024
B( 10-C , 12-C ) :   1.3794 B( 10-C , 13-H ) :   0.9271 B( 11-C , 14-C ) :   1.5960
B( 11-C , 15-C ) :  -0.2686 B( 11-C , 17-H ) :   0.1253 B( 11-C , 19-C ) :   0.6783
B( 11-C , 20-C ) :  -0.8566 B( 11-C , 22-Au) :  -0.1049 B( 12-C , 15-C ) :   1.2973
B( 12-C , 16-H ) :   1.0348 B( 14-C , 15-C ) :   1.2633 B( 14-C , 17-H ) :   0.9389
B( 14-C , 19-C ) :  -0.3811 B( 15-C , 18-H ) :   1.0465 B( 19-C , 20-C ) :   1.0148
B( 19-C , 22-Au) :  -0.4567 B( 19-C , 23-Cl) :  -0.5521 B( 19-C , 24-Cl) :   0.1142
B( 19-C , 25-Cl) :  -0.1612 B( 20-C , 21-H ) :   1.0464 B( 20-C , 22-Au) :   1.1350
B( 20-C , 23-Cl) :   0.4358 B( 22-Au, 23-Cl) :   0.8055 B( 22-Au, 24-Cl) :   0.7501
B( 22-Au, 25-Cl) :   0.8713 B( 23-Cl, 25-Cl) :   0.1603 B( 26-O , 28-C ) :   0.9689
B( 27-O , 32-C ) :   0.9530 B( 28-C , 29-H ) :   0.9610 B( 28-C , 30-H ) :   1.0532
B( 28-C , 31-H ) :   0.9493 B( 32-C , 33-H ) :   1.0522 B( 32-C , 34-H ) :   0.9611
B( 32-C , 35-H ) :   0.9523

Dispersion correction           -0.070937377
FINAL SINGLE POINT ENERGY     -2285.482151595972

DIPOLE MOMENT
-------------
                                X             Y             Z
Electronic contribution:   -300.16025    -110.66466     -12.30150
Nuclear contribution   :    303.49748     112.54151      11.37787
                        -----------------------------------------
Total Dipole Moment    :      3.33723       1.87685      -0.92363
                        -----------------------------------------
Magnitude (a.u.)       :      3.93863
Magnitude (Debye)      :     10.01120

Rotational constants in cm-1:     0.007370     0.004054     0.003244
Rotational constants in MHz :   220.947502   121.548879    97.259691

                             ****ORCA TERMINATED NORMALLY****
TOTAL RUN TIME: 0 days 0 hours 0 minutes 47 seconds 311 msec
