                         Program Version 4.2.0 -  RELEASE  -
|  1> #
|  2> # TMB29_T1 TPSS-D3BJ/Def2-TZVPPD
|  3> #
|  4> ! tpss d3bj def2-tzvppd def2/j grid4 nofinalgrid
|  5>
|  6> *xyz 1 1
|  7> C        0.302195   -1.452011   -0.105192
|  8> C        1.172851   -0.582511    0.135564
|  9> C        0.213900   -2.914548   -0.330337
| 10> H        1.214756   -3.345744   -0.317276
| 11> H       -0.388020   -3.382295    0.449588
| 12> H       -0.265099   -3.130327   -1.285361
| 13> C        1.829635    0.694580    0.494281
| 14> O        3.171960    0.697894   -0.020842
| 15> C        3.732653   -0.510299   -0.087290
| 16> O        3.070225   -1.500320    0.142290
| 17> C        1.080449    1.884401   -0.190647
| 18> O        0.030957    2.232541    0.278513
| 19> C        1.716450    2.521139   -1.379228
| 20> H        1.946637    1.771224   -2.139595
| 21> H        1.044796    3.276244   -1.779459
| 22> H        2.667103    2.978996   -1.097340
| 23> C        5.172060   -0.490501   -0.447138
| 24> H        5.507658   -1.496958   -0.678577
| 25> H        5.341426    0.179166   -1.290238
| 26> H        5.741456   -0.101237    0.400021
| 27> C        1.875471    0.903584    2.001010
| 28> H        2.434564    1.811885    2.227294
| 29> H        0.861108    1.010944    2.380408
| 30> H        2.353249    0.052039    2.484190
| 31> Au      -1.471331   -0.309724   -0.041930
| 32> P       -3.515153    0.680562    0.009165
| 33> H       -3.799713    1.607377   -1.007127
| 34> H       -4.633094   -0.165367   -0.073799
| 35> H       -3.823490    1.429925    1.156436
| 36> *
| 37>
| 38> %maxcore 5000
| 39>
| 40> %pal
| 41> nprocs = 24
| 42> end
| 43>
| 44>
| 45>                          ****END OF INPUT****

CARTESIAN COORDINATES (ANGSTROEM)
---------------------------------
  C      0.302195   -1.452011   -0.105192
  C      1.172851   -0.582511    0.135564
  C      0.213900   -2.914548   -0.330337
  H      1.214756   -3.345744   -0.317276
  H     -0.388020   -3.382295    0.449588
  H     -0.265099   -3.130327   -1.285361
  C      1.829635    0.694580    0.494281
  O      3.171960    0.697894   -0.020842
  C      3.732653   -0.510299   -0.087290
  O      3.070225   -1.500320    0.142290
  C      1.080449    1.884401   -0.190647
  O      0.030957    2.232541    0.278513
  C      1.716450    2.521139   -1.379228
  H      1.946637    1.771224   -2.139595
  H      1.044796    3.276244   -1.779459
  H      2.667103    2.978996   -1.097340
  C      5.172060   -0.490501   -0.447138
  H      5.507658   -1.496958   -0.678577
  H      5.341426    0.179166   -1.290238
  H      5.741456   -0.101237    0.400021
  C      1.875471    0.903584    2.001010
  H      2.434564    1.811885    2.227294
  H      0.861108    1.010944    2.380408
  H      2.353249    0.052039    2.484190
  Au    -1.471331   -0.309724   -0.041930
  P     -3.515153    0.680562    0.009165
  H     -3.799713    1.607377   -1.007127
  H     -4.633094   -0.165367   -0.073799
  H     -3.823490    1.429925    1.156436

 Total Charge           Charge          ....    1
 Multiplicity           Mult            ....    1
 Number of Electrons    NEL             ....  126
 Basis Dimension        Dim             ....  815

ORBITAL ENERGIES
----------------

  NO   OCC          E(Eh)            E(eV)
   0   2.0000     -76.771487     -2089.0584
   1   2.0000     -19.083136      -519.2785
   2   2.0000     -19.038318      -518.0590
   3   2.0000     -19.019594      -517.5495
   4   2.0000     -10.260399      -279.1997
   5   2.0000     -10.226488      -278.2769
   6   2.0000     -10.217425      -278.0303
   7   2.0000     -10.180405      -277.0229
   8   2.0000     -10.146405      -276.0977
   9   2.0000     -10.126584      -275.5584
  10   2.0000     -10.122448      -275.4458
  11   2.0000     -10.118331      -275.3338
  12   2.0000     -10.117222      -275.3036
  13   2.0000      -6.547977      -178.1795
  14   2.0000      -4.724841      -128.5695
  15   2.0000      -4.724816      -128.5688
  16   2.0000      -4.723235      -128.5258
  17   2.0000      -4.183539      -113.8399
  18   2.0000      -2.403485       -65.4021
  19   2.0000      -2.383498       -64.8583
  20   2.0000      -2.383118       -64.8479
  21   2.0000      -1.206809       -32.8389
  22   2.0000      -1.128466       -30.7071
  23   2.0000      -1.110067       -30.2065
  24   2.0000      -0.917555       -24.9679
  25   2.0000      -0.868786       -23.6409
  26   2.0000      -0.830542       -22.6002
  27   2.0000      -0.825864       -22.4729
  28   2.0000      -0.786060       -21.3898
  29   2.0000      -0.772763       -21.0280
  30   2.0000      -0.746641       -20.3171
  31   2.0000      -0.694593       -18.9008
  32   2.0000      -0.663927       -18.0664
  33   2.0000      -0.608474       -16.5574
  34   2.0000      -0.592496       -16.1226
  35   2.0000      -0.584747       -15.9118
  36   2.0000      -0.565380       -15.3848
  37   2.0000      -0.556137       -15.1333
  38   2.0000      -0.547135       -14.8883
  39   2.0000      -0.537813       -14.6346
  40   2.0000      -0.531149       -14.4533
  41   2.0000      -0.530265       -14.4292
  42   2.0000      -0.527677       -14.3588
  43   2.0000      -0.518582       -14.1113
  44   2.0000      -0.515614       -14.0306
  45   2.0000      -0.503864       -13.7108
  46   2.0000      -0.503623       -13.7043
  47   2.0000      -0.500745       -13.6260
  48   2.0000      -0.495751       -13.4901
  49   2.0000      -0.481314       -13.0972
  50   2.0000      -0.475678       -12.9439
  51   2.0000      -0.470772       -12.8104
  52   2.0000      -0.460141       -12.5211
  53   2.0000      -0.441590       -12.0163
  54   2.0000      -0.437517       -11.9054
  55   2.0000      -0.427333       -11.6283
  56   2.0000      -0.426634       -11.6093
  57   2.0000      -0.409366       -11.1394
  58   2.0000      -0.406917       -11.0728
  59   2.0000      -0.392935       -10.6923
  60   2.0000      -0.381736       -10.3876
  61   2.0000      -0.369143       -10.0449
  62   2.0000      -0.352020        -9.5790
  63   0.0000      -0.223529        -6.0825
  64   0.0000      -0.195697        -5.3252
  65   0.0000      -0.177861        -4.8398
  66   0.0000      -0.174019        -4.7353
  67   0.0000      -0.155879        -4.2417

MULLIKEN ATOMIC CHARGES
-----------------------
   0 C :    0.651803
   1 C :   -0.941398
   2 C :   -0.312121
   3 H :    0.047865
   4 H :    0.099891
   5 H :    0.101551
   6 C :    2.377802
   7 O :   -0.525554
   8 C :    0.628952
   9 O :   -0.564459
  10 C :    0.390163
  11 O :   -0.607672
  12 C :   -0.157430
  13 H :    0.086385
  14 H :    0.019070
  15 H :    0.090955
  16 C :   -0.220190
  17 H :    0.045609
  18 H :    0.077457
  19 H :    0.069800
  20 C :   -0.636476
  21 H :    0.072163
  22 H :    0.079157
  23 H :    0.102566
  24 Au:   -0.345028
  25 P :    0.069925
  26 H :    0.098903
  27 H :    0.100147
  28 H :    0.100164
Sum of atomic charges:    1.0000000

LOEWDIN ATOMIC CHARGES
----------------------
   0 C :   -0.257464
   1 C :    0.027218
   2 C :    0.136987
   3 H :   -0.005749
   4 H :   -0.005356
   5 H :   -0.007618
   6 C :   -0.347132
   7 O :    0.090805
   8 C :   -0.421675
   9 O :    0.166615
  10 C :   -0.332357
  11 O :    0.073064
  12 C :    0.243505
  13 H :    0.012541
  14 H :    0.008920
  15 H :    0.013958
  16 C :    0.278229
  17 H :    0.012135
  18 H :    0.014166
  19 H :    0.019786
  20 C :    0.249599
  21 H :    0.019724
  22 H :    0.007334
  23 H :    0.015188
  24 Au:    0.624726
  25 P :    0.850162
  26 H :   -0.161694
  27 H :   -0.165437
  28 H :   -0.160181

  Mayer bond orders larger than 0.100000
B(  0-C ,  1-C ) :   1.0018 B(  0-C ,  2-C ) :   1.2596 B(  0-C , 24-Au) :   0.5483
B(  1-C ,  2-C ) :  -0.2968 B(  1-C ,  6-C ) :   0.4100 B(  1-C , 10-C ) :   0.2111
B(  1-C , 20-C ) :   0.2765 B(  1-C , 24-Au) :   0.1346 B(  2-C ,  3-H ) :   1.0360
B(  2-C ,  4-H ) :   0.9123 B(  2-C ,  5-H ) :   0.9179 B(  6-C ,  7-O ) :   0.1413
B(  6-C ,  8-C ) :  -0.1165 B(  6-C , 10-C ) :   0.4128 B(  6-C , 20-C ) :   0.7126
B(  7-O ,  8-C ) :   1.0920 B(  7-O ,  9-O ) :   0.1365 B(  7-O , 10-C ) :   0.1104
B(  7-O , 20-C ) :   0.2077 B(  8-C ,  9-O ) :   1.4912 B(  8-C , 16-C ) :   1.1594
B( 10-C , 11-O ) :   1.1948 B( 10-C , 12-C ) :   1.2696 B( 11-O , 12-C ) :   0.1326
B( 12-C , 13-H ) :   0.8983 B( 12-C , 14-H ) :   1.0643 B( 12-C , 15-H ) :   0.8731
B( 16-C , 17-H ) :   0.9999 B( 16-C , 18-H ) :   0.9377 B( 16-C , 19-H ) :   0.9137
B( 20-C , 21-H ) :   0.9967 B( 20-C , 22-H ) :   0.9486 B( 20-C , 23-H ) :   0.9348
B( 24-Au, 25-P ) :   1.0514 B( 25-P , 26-H ) :   0.9309 B( 25-P , 27-H ) :   0.9251
B( 25-P , 28-H ) :   0.9324

Dispersion correction           -0.044561410
FINAL SINGLE POINT ENERGY     -1054.893794889493

DIPOLE MOMENT
-------------
                                X             Y             Z
Electronic contribution:   -211.95664     -43.02373      -5.71445
Nuclear contribution   :    212.91002      43.46471       5.39034
                        -----------------------------------------
Total Dipole Moment    :      0.95338       0.44098      -0.32411
                        -----------------------------------------
Magnitude (a.u.)       :      1.09929
Magnitude (Debye)      :      2.79418

Rotational constants in cm-1:     0.027720     0.008314     0.006995
Rotational constants in MHz :   831.016337   249.254276   209.717578

                             ****ORCA TERMINATED NORMALLY****
TOTAL RUN TIME: 0 days 0 hours 0 minutes 26 seconds 994 msec
