                         Program Version 4.2.0 -  RELEASE  -
|  1> #
|  2> # TMB28_C1 TPSS-D3BJ/Def2-TZVPPD
|  3> #
|  4> ! tpss d3bj def2-tzvppd def2/j grid4 nofinalgrid
|  5>
|  6> *xyz 0 1
|  7> C       -0.405710    1.676464   -0.132905
|  8> C       -0.911585    0.669613    0.356254
|  9> C       -0.058307    2.983711   -0.650101
| 10> H       -0.949750    3.612259   -0.580916
| 11> H        0.745323    3.420879   -0.056180
| 12> H        0.255303    2.923577   -1.693087
| 13> C       -1.922079   -0.256189    0.903797
| 14> O       -2.980737   -0.448274   -0.040247
| 15> C       -3.644467    0.620195   -0.535863
| 16> O       -3.419291    1.755394   -0.218963
| 17> C       -1.315036   -1.659397    1.187254
| 18> O       -0.292489   -1.714090    1.813533
| 19> C       -2.070337   -2.858032    0.718520
| 20> H       -2.050973   -2.878590   -0.373534
| 21> H       -1.593281   -3.749478    1.117849
| 22> H       -3.118661   -2.810283    1.017394
| 23> C       -4.664667    0.177679   -1.534856
| 24> H       -5.268795    1.028888   -1.835351
| 25> H       -4.153929   -0.239550   -2.404894
| 26> H       -5.293840   -0.608504   -1.117133
| 27> C       -2.442836    0.266886    2.244835
| 28> H       -3.205737   -0.415249    2.624458
| 29> H       -1.614369    0.303689    2.950542
| 30> H       -2.869838    1.259004    2.124200
| 31> Au       1.189623    0.069390   -0.174295
| 32> Cl       0.186320   -1.092349   -1.885264
| 33> Cl       3.146088   -1.001725   -0.550079
| 34> Cl       2.155158    1.282412    1.507095
| 35> *
| 36>
| 37> %maxcore 5000
| 38>
| 39> %pal
| 40> nprocs = 24
| 41> end
| 42>
| 43>
| 44>                          ****END OF INPUT****

CARTESIAN COORDINATES (ANGSTROEM)
---------------------------------
  C     -0.405710    1.676464   -0.132905
  C     -0.911585    0.669613    0.356254
  C     -0.058307    2.983711   -0.650101
  H     -0.949750    3.612259   -0.580916
  H      0.745323    3.420879   -0.056180
  H      0.255303    2.923577   -1.693087
  C     -1.922079   -0.256189    0.903797
  O     -2.980737   -0.448274   -0.040247
  C     -3.644467    0.620195   -0.535863
  O     -3.419291    1.755394   -0.218963
  C     -1.315036   -1.659397    1.187254
  O     -0.292489   -1.714090    1.813533
  C     -2.070337   -2.858032    0.718520
  H     -2.050973   -2.878590   -0.373534
  H     -1.593281   -3.749478    1.117849
  H     -3.118661   -2.810283    1.017394
  C     -4.664667    0.177679   -1.534856
  H     -5.268795    1.028888   -1.835351
  H     -4.153929   -0.239550   -2.404894
  H     -5.293840   -0.608504   -1.117133
  C     -2.442836    0.266886    2.244835
  H     -3.205737   -0.415249    2.624458
  H     -1.614369    0.303689    2.950542
  H     -2.869838    1.259004    2.124200
  Au     1.189623    0.069390   -0.174295
  Cl     0.186320   -1.092349   -1.885264
  Cl     3.146088   -1.001725   -0.550079
  Cl     2.155158    1.282412    1.507095

 Total Charge           Charge          ....    0
 Multiplicity           Mult            ....    1
 Number of Electrons    NEL             ....  160
 Basis Dimension        Dim             ....  869

ORBITAL ENERGIES
----------------

  NO   OCC          E(Eh)            E(eV)
   0   2.0000    -100.969061     -2747.5078
   1   2.0000    -100.965608     -2747.4139
   2   2.0000    -100.963682     -2747.3615
   3   2.0000     -18.963613      -516.0261
   4   2.0000     -18.906248      -514.4652
   5   2.0000     -18.902409      -514.3607
   6   2.0000     -10.140186      -275.9285
   7   2.0000     -10.120699      -275.3982
   8   2.0000     -10.105645      -274.9886
   9   2.0000     -10.072405      -274.0841
  10   2.0000     -10.063155      -273.8324
  11   2.0000     -10.042918      -273.2817
  12   2.0000     -10.021564      -272.7006
  13   2.0000     -10.020937      -272.6835
  14   2.0000     -10.012252      -272.4472
  15   2.0000      -9.218477      -250.8475
  16   2.0000      -9.214948      -250.7515
  17   2.0000      -9.212910      -250.6960
  18   2.0000      -6.996653      -190.3886
  19   2.0000      -6.993475      -190.3021
  20   2.0000      -6.991867      -190.2584
  21   2.0000      -6.988531      -190.1676
  22   2.0000      -6.987929      -190.1512
  23   2.0000      -6.984776      -190.0654
  24   2.0000      -6.984275      -190.0518
  25   2.0000      -6.982763      -190.0106
  26   2.0000      -6.981777      -189.9838
  27   2.0000      -4.143390      -112.7474
  28   2.0000      -2.357344       -64.1466
  29   2.0000      -2.353999       -64.0556
  30   2.0000      -2.330268       -63.4098
  31   2.0000      -1.076096       -29.2820
  32   2.0000      -1.016401       -27.6577
  33   2.0000      -0.990376       -26.9495
  34   2.0000      -0.817421       -22.2432
  35   2.0000      -0.779601       -21.2140
  36   2.0000      -0.741412       -20.1748
  37   2.0000      -0.725534       -19.7428
  38   2.0000      -0.724832       -19.7237
  39   2.0000      -0.722454       -19.6590
  40   2.0000      -0.720853       -19.6154
  41   2.0000      -0.705817       -19.2063
  42   2.0000      -0.650711       -17.7068
  43   2.0000      -0.583450       -15.8765
  44   2.0000      -0.554243       -15.0817
  45   2.0000      -0.483653       -13.1609
  46   2.0000      -0.481218       -13.0946
  47   2.0000      -0.473484       -12.8841
  48   2.0000      -0.471558       -12.8317
  49   2.0000      -0.456168       -12.4130
  50   2.0000      -0.449348       -12.2274
  51   2.0000      -0.441034       -12.0011
  52   2.0000      -0.432500       -11.7689
  53   2.0000      -0.425827       -11.5873
  54   2.0000      -0.418346       -11.3838
  55   2.0000      -0.413451       -11.2506
  56   2.0000      -0.410866       -11.1802
  57   2.0000      -0.403708       -10.9855
  58   2.0000      -0.400901       -10.9091
  59   2.0000      -0.399073       -10.8593
  60   2.0000      -0.394886       -10.7454
  61   2.0000      -0.382902       -10.4193
  62   2.0000      -0.377334       -10.2678
  63   2.0000      -0.371630       -10.1126
  64   2.0000      -0.366775        -9.9805
  65   2.0000      -0.356754        -9.7078
  66   2.0000      -0.353679        -9.6241
  67   2.0000      -0.324356        -8.8262
  68   2.0000      -0.321181        -8.7398
  69   2.0000      -0.315297        -8.5797
  70   2.0000      -0.308448        -8.3933
  71   2.0000      -0.287343        -7.8190
  72   2.0000      -0.277149        -7.5416
  73   2.0000      -0.269321        -7.3286
  74   2.0000      -0.262609        -7.1459
  75   2.0000      -0.251876        -6.8539
  76   2.0000      -0.249874        -6.7994
  77   2.0000      -0.245714        -6.6862
  78   2.0000      -0.242193        -6.5904
  79   2.0000      -0.239297        -6.5116
  80   0.0000      -0.157611        -4.2888
  81   0.0000      -0.089074        -2.4238
  82   0.0000      -0.080271        -2.1843
  83   0.0000      -0.057585        -1.5670
  84   0.0000      -0.050572        -1.3761

MULLIKEN ATOMIC CHARGES
-----------------------
   0 C :    2.469331
   1 C :   -2.101931
   2 C :   -0.455690
   3 H :    0.099073
   4 H :    0.073851
   5 H :    0.054216
   6 C :    2.328120
   7 O :   -0.476476
   8 C :    0.726606
   9 O :   -0.590410
  10 C :    0.119309
  11 O :   -0.641011
  12 C :   -0.127188
  13 H :    0.065780
  14 H :    0.022818
  15 H :    0.113704
  16 C :   -0.185400
  17 H :    0.023835
  18 H :    0.046940
  19 H :    0.082468
  20 C :   -0.845772
  21 H :    0.094796
  22 H :    0.154477
  23 H :    0.144567
  24 Au:    0.090369
  25 Cl:   -0.471829
  26 Cl:   -0.340505
  27 Cl:   -0.474049
Sum of atomic charges:   -0.0000000

LOEWDIN ATOMIC CHARGES
----------------------
   0 C :   -0.173765
   1 C :   -0.123895
   2 C :    0.155090
   3 H :    0.010614
   4 H :   -0.016524
   5 H :    0.005815
   6 C :   -0.364210
   7 O :    0.052382
   8 C :   -0.467177
   9 O :    0.139471
  10 C :   -0.367722
  11 O :    0.102667
  12 C :    0.228754
  13 H :   -0.003280
  14 H :    0.005742
  15 H :    0.003042
  16 C :    0.250474
  17 H :    0.000550
  18 H :    0.007358
  19 H :    0.002003
  20 C :    0.250740
  21 H :    0.015090
  22 H :    0.015156
  23 H :   -0.000337
  24 Au:    0.307057
  25 Cl:    0.023489
  26 Cl:   -0.066186
  27 Cl:    0.007602

  Mayer bond orders larger than 0.100000
B(  0-C ,  1-C ) :  -2.1426 B(  0-C ,  2-C ) :   0.9301 B(  0-C ,  8-C ) :   0.1058
B(  0-C ,  9-O ) :  -0.2558 B(  0-C , 10-C ) :  -0.2783 B(  0-C , 12-C ) :  -0.1390
B(  0-C , 24-Au) :  -0.4237 B(  0-C , 25-Cl) :  -0.7321 B(  0-C , 27-Cl) :   0.3250
B(  1-C ,  6-C ) :   1.2651 B(  1-C ,  7-O ) :   0.2255 B(  1-C ,  9-O ) :   0.1295
B(  1-C , 10-C ) :   0.3310 B(  1-C , 11-O ) :   0.1455 B(  1-C , 12-C ) :   0.1327
B(  1-C , 20-C ) :   0.4422 B(  1-C , 24-Au) :   0.9098 B(  1-C , 25-Cl) :   0.2905
B(  1-C , 26-Cl) :   0.1077 B(  1-C , 27-Cl) :  -0.6829 B(  2-C ,  3-H ) :   0.9988
B(  2-C ,  4-H ) :   0.8771 B(  2-C ,  5-H ) :   0.9755 B(  6-C ,  7-O ) :  -0.1487
B(  6-C ,  8-C ) :  -0.1959 B(  6-C ,  9-O ) :   0.2377 B(  6-C , 10-C ) :   0.2994
B(  6-C , 20-C ) :   0.5144 B(  6-C , 25-Cl) :   0.2826 B(  7-O ,  8-C ) :   1.0289
B(  7-O , 20-C ) :   0.1216 B(  8-C ,  9-O ) :   1.4428 B(  8-C , 16-C ) :   1.0610
B( 10-C , 11-O ) :   1.1787 B( 10-C , 12-C ) :   1.2114 B( 10-C , 24-Au) :  -0.2750
B( 11-O , 12-C ) :   0.1364 B( 11-O , 20-C ) :   0.1340 B( 12-C , 13-H ) :   0.8831
B( 12-C , 14-H ) :   1.0628 B( 12-C , 15-H ) :   0.8971 B( 16-C , 17-H ) :   1.0419
B( 16-C , 18-H ) :   0.9232 B( 16-C , 19-H ) :   0.9194 B( 20-C , 21-H ) :   1.0294
B( 20-C , 22-H ) :   0.9457 B( 20-C , 23-H ) :   0.9062 B( 24-Au, 25-Cl) :   0.9444
B( 24-Au, 26-Cl) :   0.7114 B( 24-Au, 27-Cl) :   0.8820 B( 25-Cl, 27-Cl) :   0.1677

Dispersion correction           -0.053797169
FINAL SINGLE POINT ENERGY     -2092.661917585823

DIPOLE MOMENT
-------------
                                X             Y             Z
Electronic contribution:    184.88841       8.33550     -26.25655
Nuclear contribution   :   -188.12551      -7.68230      26.09317
                        -----------------------------------------
Total Dipole Moment    :     -3.23710       0.65320      -0.16338
                        -----------------------------------------
Magnitude (a.u.)       :      3.30638
Magnitude (Debye)      :      8.40416

Rotational constants in cm-1:     0.016324     0.007365     0.006921
Rotational constants in MHz :   489.388468   220.811279   207.480820

                             ****ORCA TERMINATED NORMALLY****
TOTAL RUN TIME: 0 days 0 hours 0 minutes 31 seconds 810 msec
