                         Program Version 4.2.0 -  RELEASE  -
|  1> #
|  2> # TMB28_T1 TPSS-D3BJ/Def2-TZVPPD
|  3> #
|  4> ! tpss d3bj def2-tzvppd def2/j grid4 nofinalgrid
|  5>
|  6> *xyz 0 1
|  7> C       -0.472087   -1.270184   -0.544262
|  8> C       -1.371263   -0.408913   -0.410763
|  9> C       -0.283188   -2.679486   -0.928311
| 10> H       -1.250337   -3.132270   -1.147533
| 11> H        0.355340   -2.736203   -1.811412
| 12> H        0.207850   -3.220295   -0.118359
| 13> C       -2.087605    0.860649   -0.268000
| 14> O       -3.384272    0.602181    0.322954
| 15> C       -3.916162   -0.562532   -0.037107
| 16> O       -3.286397   -1.359772   -0.698080
| 17> C       -1.360806    1.791956    0.779385
| 18> O       -0.796250    2.763376    0.375084
| 19> C       -1.472551    1.401357    2.216606
| 20> H       -1.203914    0.352090    2.355444
| 21> H       -0.810137    2.031512    2.804683
| 22> H       -2.503869    1.535124    2.549793
| 23> C       -5.307153   -0.755812    0.455050
| 24> H       -5.663745   -1.741165    0.170882
| 25> H       -5.328847   -0.642840    1.539841
| 26> H       -5.952574    0.015643    0.032531
| 27> C       -2.259938    1.568911   -1.595082
| 28> H       -2.813189    2.495499   -1.446777
| 29> H       -1.275651    1.804221   -1.997337
| 30> H       -2.786554    0.924255   -2.298279
| 31> Au       1.278819   -0.204328   -0.045979
| 32> Cl       1.126476   -1.118462    2.051374
| 33> Cl       3.319842    0.694072    0.431966
| 34> Cl       1.372434    0.585236   -2.189571
| 35> *
| 36>
| 37> %maxcore 5000
| 38>
| 39> %pal
| 40> nprocs = 24
| 41> end
| 42>
| 43>
| 44>                          ****END OF INPUT****

CARTESIAN COORDINATES (ANGSTROEM)
---------------------------------
  C     -0.472087   -1.270184   -0.544262
  C     -1.371263   -0.408913   -0.410763
  C     -0.283188   -2.679486   -0.928311
  H     -1.250337   -3.132270   -1.147533
  H      0.355340   -2.736203   -1.811412
  H      0.207850   -3.220295   -0.118359
  C     -2.087605    0.860649   -0.268000
  O     -3.384272    0.602181    0.322954
  C     -3.916162   -0.562532   -0.037107
  O     -3.286397   -1.359772   -0.698080
  C     -1.360806    1.791956    0.779385
  O     -0.796250    2.763376    0.375084
  C     -1.472551    1.401357    2.216606
  H     -1.203914    0.352090    2.355444
  H     -0.810137    2.031512    2.804683
  H     -2.503869    1.535124    2.549793
  C     -5.307153   -0.755812    0.455050
  H     -5.663745   -1.741165    0.170882
  H     -5.328847   -0.642840    1.539841
  H     -5.952574    0.015643    0.032531
  C     -2.259938    1.568911   -1.595082
  H     -2.813189    2.495499   -1.446777
  H     -1.275651    1.804221   -1.997337
  H     -2.786554    0.924255   -2.298279
  Au     1.278819   -0.204328   -0.045979
  Cl     1.126476   -1.118462    2.051374
  Cl     3.319842    0.694072    0.431966
  Cl     1.372434    0.585236   -2.189571

 Total Charge           Charge          ....    0
 Multiplicity           Mult            ....    1
 Number of Electrons    NEL             ....  160
 Basis Dimension        Dim             ....  869

ORBITAL ENERGIES
----------------

  NO   OCC          E(Eh)            E(eV)
   0   2.0000    -100.961407     -2747.2996
   1   2.0000    -100.958961     -2747.2330
   2   2.0000    -100.948925     -2746.9599
   3   2.0000     -18.991926      -516.7966
   4   2.0000     -18.947665      -515.5922
   5   2.0000     -18.916884      -514.7546
   6   2.0000     -10.171414      -276.7782
   7   2.0000     -10.125889      -275.5394
   8   2.0000     -10.113892      -275.2130
   9   2.0000     -10.077741      -274.2293
  10   2.0000     -10.055144      -273.6144
  11   2.0000     -10.048521      -273.4342
  12   2.0000     -10.027059      -272.8502
  13   2.0000     -10.015210      -272.5277
  14   2.0000     -10.014115      -272.4979
  15   2.0000      -9.210786      -250.6382
  16   2.0000      -9.208286      -250.5702
  17   2.0000      -9.198241      -250.2969
  18   2.0000      -6.988838      -190.1760
  19   2.0000      -6.986527      -190.1131
  20   2.0000      -6.980833      -189.9581
  21   2.0000      -6.980365      -189.9454
  22   2.0000      -6.978279      -189.8886
  23   2.0000      -6.977744      -189.8741
  24   2.0000      -6.976847      -189.8497
  25   2.0000      -6.968166      -189.6134
  26   2.0000      -6.967375      -189.5919
  27   2.0000      -4.127452      -112.3137
  28   2.0000      -2.340472       -63.6875
  29   2.0000      -2.339159       -63.6518
  30   2.0000      -2.314737       -62.9872
  31   2.0000      -1.114008       -30.3137
  32   2.0000      -1.027838       -27.9689
  33   2.0000      -1.017809       -27.6960
  34   2.0000      -0.822347       -22.3772
  35   2.0000      -0.775200       -21.0943
  36   2.0000      -0.744194       -20.2506
  37   2.0000      -0.732900       -19.9432
  38   2.0000      -0.724838       -19.7238
  39   2.0000      -0.716753       -19.5039
  40   2.0000      -0.710570       -19.3356
  41   2.0000      -0.689779       -18.7699
  42   2.0000      -0.649761       -17.6809
  43   2.0000      -0.600004       -16.3269
  44   2.0000      -0.564362       -15.3571
  45   2.0000      -0.515961       -14.0400
  46   2.0000      -0.497486       -13.5373
  47   2.0000      -0.488422       -13.2906
  48   2.0000      -0.472009       -12.8440
  49   2.0000      -0.459592       -12.5061
  50   2.0000      -0.453554       -12.3418
  51   2.0000      -0.439445       -11.9579
  52   2.0000      -0.433844       -11.8055
  53   2.0000      -0.428520       -11.6606
  54   2.0000      -0.424052       -11.5390
  55   2.0000      -0.415197       -11.2981
  56   2.0000      -0.412917       -11.2360
  57   2.0000      -0.406750       -11.0682
  58   2.0000      -0.402556       -10.9541
  59   2.0000      -0.391051       -10.6410
  60   2.0000      -0.388769       -10.5789
  61   2.0000      -0.386446       -10.5157
  62   2.0000      -0.377163       -10.2631
  63   2.0000      -0.368252       -10.0206
  64   2.0000      -0.364939        -9.9305
  65   2.0000      -0.359341        -9.7782
  66   2.0000      -0.353155        -9.6098
  67   2.0000      -0.337541        -9.1850
  68   2.0000      -0.333940        -9.0870
  69   2.0000      -0.310825        -8.4580
  70   2.0000      -0.308282        -8.3888
  71   2.0000      -0.294203        -8.0057
  72   2.0000      -0.280969        -7.6456
  73   2.0000      -0.272201        -7.4070
  74   2.0000      -0.255390        -6.9495
  75   2.0000      -0.249561        -6.7909
  76   2.0000      -0.240819        -6.5530
  77   2.0000      -0.238039        -6.4774
  78   2.0000      -0.236670        -6.4401
  79   2.0000      -0.230614        -6.2753
  80   0.0000      -0.158448        -4.3116
  81   0.0000      -0.103172        -2.8074
  82   0.0000      -0.088436        -2.4065
  83   0.0000      -0.071105        -1.9349
  84   0.0000      -0.049461        -1.3459

MULLIKEN ATOMIC CHARGES
-----------------------
   0 C :   -0.544939
   1 C :    0.770033
   2 C :   -0.589761
   3 H :    0.032568
   4 H :    0.100578
   5 H :    0.125300
   6 C :    2.790971
   7 O :   -0.564297
   8 C :    0.644721
   9 O :   -0.582303
  10 C :    0.152547
  11 O :   -0.553503
  12 C :   -0.191063
  13 H :    0.174694
  14 H :   -0.040912
  15 H :    0.105731
  16 C :   -0.202489
  17 H :    0.042309
  18 H :    0.068188
  19 H :    0.068951
  20 C :   -0.614994
  21 H :    0.055512
  22 H :    0.086119
  23 H :    0.084625
  24 Au:    0.026483
  25 Cl:   -0.529890
  26 Cl:   -0.403876
  27 Cl:   -0.511305
Sum of atomic charges:   -0.0000000

LOEWDIN ATOMIC CHARGES
----------------------
   0 C :   -0.323337
   1 C :    0.025537
   2 C :    0.142556
   3 H :   -0.004861
   4 H :   -0.003843
   5 H :   -0.015854
   6 C :   -0.340258
   7 O :    0.099574
   8 C :   -0.439256
   9 O :    0.164526
  10 C :   -0.325817
  11 O :    0.157826
  12 C :    0.218082
  13 H :   -0.045942
  14 H :    0.008466
  15 H :    0.004009
  16 C :    0.267656
  17 H :    0.006024
  18 H :    0.010984
  19 H :    0.011411
  20 C :    0.230488
  21 H :    0.014223
  22 H :   -0.021979
  23 H :    0.010915
  24 Au:    0.267522
  25 Cl:   -0.004340
  26 Cl:   -0.106979
  27 Cl:   -0.007335

  Mayer bond orders larger than 0.100000
B(  0-C ,  1-C ) :  -0.5847 B(  0-C ,  2-C ) :   1.3010 B(  0-C ,  3-H ) :   0.1258
B(  0-C ,  6-C ) :  -0.4388 B(  0-C ,  9-O ) :   0.1988 B(  0-C , 24-Au) :   1.7170
B(  0-C , 25-Cl) :   0.5803 B(  0-C , 27-Cl) :   0.7589 B(  1-C ,  2-C ) :  -0.5200
B(  1-C ,  3-H ) :  -0.1957 B(  1-C ,  6-C ) :   0.5253 B(  1-C ,  8-C ) :  -0.1006
B(  1-C , 10-C ) :   0.6098 B(  1-C , 12-C ) :   0.1693 B(  1-C , 20-C ) :   0.3293
B(  1-C , 24-Au) :  -1.3950 B(  1-C , 25-Cl) :  -0.8738 B(  1-C , 27-Cl) :  -1.1183
B(  2-C ,  3-H ) :   1.0599 B(  2-C ,  4-H ) :   0.9270 B(  2-C ,  5-H ) :   0.9142
B(  6-C , 10-C ) :  -0.1644 B(  6-C , 11-O ) :   0.1264 B(  6-C , 12-C ) :  -0.1056
B(  6-C , 20-C ) :   0.7313 B(  6-C , 24-Au) :  -0.3185 B(  7-O ,  8-C ) :   1.1363
B(  7-O ,  9-O ) :   0.1404 B(  7-O , 10-C ) :   0.1967 B(  7-O , 20-C ) :   0.1698
B(  8-C ,  9-O ) :   1.4616 B(  8-C , 16-C ) :   1.1134 B( 10-C , 11-O ) :   1.2913
B( 10-C , 12-C ) :   1.3744 B( 11-O , 12-C ) :   0.1079 B( 12-C , 13-H ) :   0.8927
B( 12-C , 14-H ) :   1.0374 B( 12-C , 15-H ) :   0.8865 B( 16-C , 17-H ) :   1.0172
B( 16-C , 18-H ) :   0.9332 B( 16-C , 19-H ) :   0.9265 B( 20-C , 21-H ) :   1.0018
B( 20-C , 22-H ) :   0.9172 B( 20-C , 23-H ) :   0.9370 B( 20-C , 27-Cl) :  -0.1147
B( 24-Au, 25-Cl) :   1.0159 B( 24-Au, 26-Cl) :   0.6973 B( 24-Au, 27-Cl) :   0.9891
B( 25-Cl, 27-Cl) :   0.1590

Dispersion correction           -0.054466069
FINAL SINGLE POINT ENERGY     -2092.661607465462

DIPOLE MOMENT
-------------
                                X             Y             Z
Electronic contribution:    196.19016     -27.57282      -6.37171
Nuclear contribution   :   -200.70985      26.65253       6.49371
                        -----------------------------------------
Total Dipole Moment    :     -4.51969      -0.92029       0.12200
                        -----------------------------------------
Magnitude (a.u.)       :      4.61404
Magnitude (Debye)      :     11.72796

Rotational constants in cm-1:     0.016870     0.006757     0.006678
Rotational constants in MHz :   505.750873   202.581775   200.209050

                             ****ORCA TERMINATED NORMALLY****
TOTAL RUN TIME: 0 days 0 hours 0 minutes 30 seconds 872 msec
