                         Program Version 4.2.0 -  RELEASE  -
|  1> #
|  2> # TMB20_C1 TPSS-D3BJ/Def2-TZVPPD
|  3> #
|  4> ! tpss d3bj def2-tzvppd def2/j grid4 nofinalgrid
|  5>
|  6> *xyz 0 1
|  7> Re      -1.072665    0.212376   -0.034636
|  8> C       -1.072260   -0.271683    1.857255
|  9> C       -2.882577   -0.347239   -0.151918
| 10> C       -1.671800    1.974535    0.387813
| 11> Br      -0.106106   -2.222959   -0.227559
| 12> O       -2.042355    3.032773    0.649150
| 13> O       -1.092539   -0.543239    2.965184
| 14> O       -3.977345   -0.680746   -0.233754
| 15> C       -1.097144    1.301488   -2.052782
| 16> C       -0.757943    0.130940   -2.251371
| 17> C        3.116548    1.792974   -0.035452
| 18> C        3.822495    0.593532    0.034050
| 19> O        3.256440   -0.568022    0.077602
| 20> O        5.128051    0.619793    0.055969
| 21> C        1.730040    1.757413   -0.054388
| 22> O        1.074850    0.675289   -0.001074
| 23> H        2.259004   -0.423965    0.051981
| 24> C        5.826586   -0.629933    0.127198
| 25> H        6.879482   -0.365214    0.136783
| 26> H        5.557636   -1.164457    1.037079
| 27> H        5.594141   -1.245208   -0.740821
| 28> H       -0.446457   -0.764543   -2.749196
| 29> H        3.656243    2.725032   -0.072675
| 30> H       -1.374127    2.315189   -2.254725
| 31> H        1.177176    2.699572   -0.113184
| 32> *
| 33>
| 34> %maxcore 5000
| 35>
| 36> %pal
| 37> nprocs = 24
| 38> end
| 39>
| 40>
| 41>                          ****END OF INPUT****

CARTESIAN COORDINATES (ANGSTROEM)
---------------------------------
  Re    -1.072665    0.212376   -0.034636
  C     -1.072260   -0.271683    1.857255
  C     -2.882577   -0.347239   -0.151918
  C     -1.671800    1.974535    0.387813
  Br    -0.106106   -2.222959   -0.227559
  O     -2.042355    3.032773    0.649150
  O     -1.092539   -0.543239    2.965184
  O     -3.977345   -0.680746   -0.233754
  C     -1.097144    1.301488   -2.052782
  C     -0.757943    0.130940   -2.251371
  C      3.116548    1.792974   -0.035452
  C      3.822495    0.593532    0.034050
  O      3.256440   -0.568022    0.077602
  O      5.128051    0.619793    0.055969
  C      1.730040    1.757413   -0.054388
  O      1.074850    0.675289   -0.001074
  H      2.259004   -0.423965    0.051981
  C      5.826586   -0.629933    0.127198
  H      6.879482   -0.365214    0.136783
  H      5.557636   -1.164457    1.037079
  H      5.594141   -1.245208   -0.740821
  H     -0.446457   -0.764543   -2.749196
  H      3.656243    2.725032   -0.072675
  H     -1.374127    2.315189   -2.254725
  H      1.177176    2.699572   -0.113184

 Total Charge           Charge          ....    0
 Multiplicity           Mult            ....    1
 Number of Electrons    NEL             ....  160
 Basis Dimension        Dim             ....  825

ORBITAL ENERGIES
----------------

  NO   OCC          E(Eh)            E(eV)
   0   2.0000    -481.671710    -13106.9536
   1   2.0000     -61.887949     -1684.0567
   2   2.0000     -55.720834     -1516.2410
   3   2.0000     -55.719273     -1516.1985
   4   2.0000     -55.719127     -1516.1945
   5   2.0000     -18.980845      -516.4951
   6   2.0000     -18.964241      -516.0432
   7   2.0000     -18.950614      -515.6724
   8   2.0000     -18.942804      -515.4599
   9   2.0000     -18.933032      -515.1940
  10   2.0000     -18.928874      -515.0809
  11   2.0000     -10.160918      -276.4926
  12   2.0000     -10.095826      -274.7214
  13   2.0000     -10.085711      -274.4462
  14   2.0000     -10.084723      -274.4193
  15   2.0000     -10.079225      -274.2696
  16   2.0000     -10.072066      -274.0748
  17   2.0000     -10.028188      -272.8809
  18   2.0000     -10.019281      -272.6385
  19   2.0000     -10.015656      -272.5399
  20   2.0000      -8.417719      -229.0578
  21   2.0000      -6.258950      -170.3147
  22   2.0000      -6.253303      -170.1610
  23   2.0000      -6.252711      -170.1449
  24   2.0000      -3.106662       -84.5366
  25   2.0000      -2.426171       -66.0195
  26   2.0000      -2.424858       -65.9837
  27   2.0000      -2.424443       -65.9724
  28   2.0000      -2.420087       -65.8539
  29   2.0000      -2.420071       -65.8535
  30   2.0000      -1.696868       -46.1741
  31   2.0000      -1.695251       -46.1301
  32   2.0000      -1.691742       -46.0347
  33   2.0000      -1.108303       -30.1585
  34   2.0000      -1.057651       -28.7801
  35   2.0000      -1.048864       -28.5410
  36   2.0000      -1.039291       -28.2805
  37   2.0000      -1.037069       -28.2201
  38   2.0000      -1.007835       -27.4246
  39   2.0000      -0.773273       -21.0418
  40   2.0000      -0.742198       -20.1962
  41   2.0000      -0.712238       -19.3810
  42   2.0000      -0.654258       -17.8033
  43   2.0000      -0.615315       -16.7436
  44   2.0000      -0.607611       -16.5339
  45   2.0000      -0.549874       -14.9628
  46   2.0000      -0.537551       -14.6275
  47   2.0000      -0.532771       -14.4974
  48   2.0000      -0.512515       -13.9462
  49   2.0000      -0.511635       -13.9223
  50   2.0000      -0.494854       -13.4657
  51   2.0000      -0.490634       -13.3508
  52   2.0000      -0.480861       -13.0849
  53   2.0000      -0.473320       -12.8797
  54   2.0000      -0.448310       -12.1991
  55   2.0000      -0.429897       -11.6981
  56   2.0000      -0.427856       -11.6426
  57   2.0000      -0.423221       -11.5164
  58   2.0000      -0.417277       -11.3547
  59   2.0000      -0.416023       -11.3206
  60   2.0000      -0.414998       -11.2927
  61   2.0000      -0.409293       -11.1374
  62   2.0000      -0.403753       -10.9867
  63   2.0000      -0.400043       -10.8857
  64   2.0000      -0.391491       -10.6530
  65   2.0000      -0.389322       -10.5940
  66   2.0000      -0.388258       -10.5650
  67   2.0000      -0.379413       -10.3243
  68   2.0000      -0.361964        -9.8495
  69   2.0000      -0.332311        -9.0426
  70   2.0000      -0.316856        -8.6221
  71   2.0000      -0.309628        -8.4254
  72   2.0000      -0.291409        -7.9296
  73   2.0000      -0.267474        -7.2783
  74   2.0000      -0.255887        -6.9631
  75   2.0000      -0.250461        -6.8154
  76   2.0000      -0.242419        -6.5965
  77   2.0000      -0.207800        -5.6545
  78   2.0000      -0.205184        -5.5833
  79   2.0000      -0.197906        -5.3853
  80   0.0000      -0.107049        -2.9129
  81   0.0000      -0.080317        -2.1855
  82   0.0000      -0.053573        -1.4578
  83   0.0000      -0.036862        -1.0031
  84   0.0000      -0.034216        -0.9311

MULLIKEN ATOMIC CHARGES
-----------------------
   0 Re:   -0.117262
   1 C :    0.482039
   2 C :    0.810965
   3 C :    0.397027
   4 Br:   -0.675430
   5 O :   -0.429067
   6 O :   -0.311832
   7 O :   -0.387125
   8 C :   -0.049496
   9 C :    0.190268
  10 C :   -0.732759
  11 C :    0.976025
  12 O :   -0.574286
  13 O :   -0.357978
  14 C :    0.711748
  15 O :   -0.888809
  16 H :    0.446927
  17 C :    0.017706
  18 H :    0.053724
  19 H :    0.106114
  20 H :    0.106002
  21 H :    0.024922
  22 H :    0.079423
  23 H :   -0.011691
  24 H :    0.132845
Sum of atomic charges:   -0.0000000

LOEWDIN ATOMIC CHARGES
----------------------
   0 Re:    0.574623
   1 C :   -0.318257
   2 C :   -0.318941
   3 C :   -0.308571
   4 Br:    0.124469
   5 O :    0.113964
   6 O :    0.134796
   7 O :    0.123011
   8 C :    0.028441
   9 C :   -0.034202
  10 C :    0.119695
  11 C :   -0.354828
  12 O :    0.364203
  13 O :    0.075159
  14 C :   -0.115307
  15 O :   -0.150000
  16 H :   -0.215427
  17 C :    0.194500
  18 H :    0.012831
  19 H :    0.015475
  20 H :    0.015328
  21 H :   -0.075840
  22 H :    0.010764
  23 H :   -0.048293
  24 H :    0.032406

  Mayer bond orders larger than 0.100000
B(  0-Re,  1-C ) :   1.1530 B(  0-Re,  2-C ) :   1.4703 B(  0-Re,  3-C ) :   1.3868
B(  0-Re,  4-Br) :   0.2342 B(  0-Re,  5-O ) :   0.1491 B(  0-Re,  6-O ) :   0.1197
B(  0-Re,  7-O ) :   0.2179 B(  0-Re,  8-C ) :   0.7417 B(  0-Re,  9-C ) :   0.5920
B(  0-Re, 15-O ) :   0.2778 B(  1-C ,  2-C ) :  -0.1283 B(  1-C ,  4-Br) :   0.1120
B(  1-C ,  6-O ) :   1.9314 B(  2-C ,  7-O ) :   1.8437 B(  3-C ,  5-O ) :   1.8228
B(  8-C ,  9-C ) :   1.7769 B(  8-C , 23-H ) :   1.1522 B(  9-C , 15-O ) :  -0.1149
B(  9-C , 21-H ) :   1.0763 B(  9-C , 23-H ) :  -0.1310 B( 10-C , 11-C ) :   0.8413
B( 10-C , 14-C ) :   1.1264 B( 10-C , 15-O ) :   0.1322 B( 10-C , 22-H ) :   1.2112
B( 11-C , 12-O ) :   0.8818 B( 11-C , 13-O ) :   0.8682 B( 11-C , 15-O ) :   0.1562
B( 12-O , 16-H ) :   0.6574 B( 13-O , 17-C ) :   0.8735 B( 14-C , 15-O ) :   0.9967
B( 14-C , 24-H ) :   0.9428 B( 17-C , 18-H ) :   1.0260 B( 17-C , 19-H ) :   0.9608
B( 17-C , 20-H ) :   0.9591

Dispersion correction           -0.044247942
FINAL SINGLE POINT ENERGY     -3452.115255814083

DIPOLE MOMENT
-------------
                                X             Y             Z
Electronic contribution:   -158.37071      14.16016      -3.98410
Nuclear contribution   :    161.40681     -12.70221       3.21078
                        -----------------------------------------
Total Dipole Moment    :      3.03610       1.45795      -0.77332
                        -----------------------------------------
Magnitude (a.u.)       :      3.45566
Magnitude (Debye)      :      8.78358

Rotational constants in cm-1:     0.015589     0.006706     0.005713
Rotational constants in MHz :   467.340547   201.035293   171.274519

                             ****ORCA TERMINATED NORMALLY****
TOTAL RUN TIME: 0 days 0 hours 0 minutes 26 seconds 685 msec
