                         Program Version 4.2.0 -  RELEASE  -
|  1> #
|  2> # TMB20_I1 TPSS-D3BJ/Def2-TZVPPD
|  3> #
|  4> ! tpss d3bj def2-tzvppd def2/j grid4 nofinalgrid
|  5>
|  6> *xyz 0 1
|  7> Re       0.721260    0.301703   -0.012347
|  8> C        1.851141    0.452958   -1.678261
|  9> C        1.971728    0.634914    1.425372
| 10> C        0.763580    2.214165   -0.101283
| 11> Br       1.710512   -2.064741    0.019177
| 12> O        0.816608    3.358474   -0.166463
| 13> O        2.493283    0.513036   -2.612271
| 14> O        2.652573    0.808904    2.320449
| 15> C       -1.780395   -0.133590    1.665167
| 16> C       -0.470905   -0.371203    1.638632
| 17> C       -2.365069    0.652857    0.526821
| 18> C       -3.493010   -0.159458   -0.075600
| 19> O       -3.300943   -1.161632   -0.733339
| 20> O       -4.693453    0.297769    0.229376
| 21> C       -1.280010    0.876972   -0.512116
| 22> O       -0.953000   -0.240509   -1.297416
| 23> H       -1.566319   -0.977006   -1.049921
| 24> C       -5.797043   -0.483161   -0.244906
| 25> H       -6.688437    0.024549    0.111717
| 26> H       -5.787691   -0.527184   -1.333247
| 27> H       -5.742358   -1.494851    0.155119
| 28> H       -0.050439   -0.962173    2.449658
| 29> H       -2.758296    1.619346    0.851818
| 30> H       -2.454065   -0.501260    2.435709
| 31> H       -1.435420    1.741704   -1.151672
| 32> *
| 33>
| 34> %maxcore 5000
| 35>
| 36> %pal
| 37> nprocs = 24
| 38> end
| 39>
| 40>
| 41>                          ****END OF INPUT****

CARTESIAN COORDINATES (ANGSTROEM)
---------------------------------
  Re     0.721260    0.301703   -0.012347
  C      1.851141    0.452958   -1.678261
  C      1.971728    0.634914    1.425372
  C      0.763580    2.214165   -0.101283
  Br     1.710512   -2.064741    0.019177
  O      0.816608    3.358474   -0.166463
  O      2.493283    0.513036   -2.612271
  O      2.652573    0.808904    2.320449
  C     -1.780395   -0.133590    1.665167
  C     -0.470905   -0.371203    1.638632
  C     -2.365069    0.652857    0.526821
  C     -3.493010   -0.159458   -0.075600
  O     -3.300943   -1.161632   -0.733339
  O     -4.693453    0.297769    0.229376
  C     -1.280010    0.876972   -0.512116
  O     -0.953000   -0.240509   -1.297416
  H     -1.566319   -0.977006   -1.049921
  C     -5.797043   -0.483161   -0.244906
  H     -6.688437    0.024549    0.111717
  H     -5.787691   -0.527184   -1.333247
  H     -5.742358   -1.494851    0.155119
  H     -0.050439   -0.962173    2.449658
  H     -2.758296    1.619346    0.851818
  H     -2.454065   -0.501260    2.435709
  H     -1.435420    1.741704   -1.151672

 Total Charge           Charge          ....    0
 Multiplicity           Mult            ....    1
 Number of Electrons    NEL             ....  160
 Basis Dimension        Dim             ....  825

ORBITAL ENERGIES
----------------

  NO   OCC          E(Eh)            E(eV)
   0   2.0000    -481.692307    -13107.5141
   1   2.0000     -61.908446     -1684.6144
   2   2.0000     -55.741450     -1516.8020
   3   2.0000     -55.739785     -1516.7567
   4   2.0000     -55.739492     -1516.7487
   5   2.0000     -18.973196      -516.2869
   6   2.0000     -18.972591      -516.2705
   7   2.0000     -18.970068      -516.2018
   8   2.0000     -18.968886      -516.1696
   9   2.0000     -18.959750      -515.9210
  10   2.0000     -18.914013      -514.6765
  11   2.0000     -10.145143      -276.0634
  12   2.0000     -10.108717      -275.0722
  13   2.0000     -10.107273      -275.0329
  14   2.0000     -10.105078      -274.9732
  15   2.0000     -10.092709      -274.6366
  16   2.0000     -10.069846      -274.0144
  17   2.0000     -10.039935      -273.2005
  18   2.0000      -9.995767      -271.9987
  19   2.0000      -9.976921      -271.4858
  20   2.0000      -8.438201      -229.6151
  21   2.0000      -6.279822      -170.8826
  22   2.0000      -6.273975      -170.7235
  23   2.0000      -6.272599      -170.6861
  24   2.0000      -3.133542       -85.2680
  25   2.0000      -2.446986       -66.5859
  26   2.0000      -2.445779       -66.5530
  27   2.0000      -2.444833       -66.5273
  28   2.0000      -2.440226       -66.4019
  29   2.0000      -2.440189       -66.4009
  30   2.0000      -1.727302       -47.0023
  31   2.0000      -1.723251       -46.8920
  32   2.0000      -1.711337       -46.5678
  33   2.0000      -1.084822       -29.5195
  34   2.0000      -1.081172       -29.4202
  35   2.0000      -1.077262       -29.3138
  36   2.0000      -1.067535       -29.0491
  37   2.0000      -1.045287       -28.4437
  38   2.0000      -0.993617       -27.0377
  39   2.0000      -0.790574       -21.5126
  40   2.0000      -0.715779       -19.4773
  41   2.0000      -0.680890       -18.5280
  42   2.0000      -0.674350       -18.3500
  43   2.0000      -0.638338       -17.3701
  44   2.0000      -0.567530       -15.4433
  45   2.0000      -0.556350       -15.1391
  46   2.0000      -0.539596       -14.6832
  47   2.0000      -0.531243       -14.4559
  48   2.0000      -0.529049       -14.3962
  49   2.0000      -0.505757       -13.7623
  50   2.0000      -0.495898       -13.4941
  51   2.0000      -0.481585       -13.1046
  52   2.0000      -0.474341       -12.9075
  53   2.0000      -0.466985       -12.7073
  54   2.0000      -0.451507       -12.2861
  55   2.0000      -0.445935       -12.1345
  56   2.0000      -0.441176       -12.0050
  57   2.0000      -0.434626       -11.8268
  58   2.0000      -0.432532       -11.7698
  59   2.0000      -0.430946       -11.7266
  60   2.0000      -0.425987       -11.5917
  61   2.0000      -0.418773       -11.3954
  62   2.0000      -0.411372       -11.1940
  63   2.0000      -0.410722       -11.1763
  64   2.0000      -0.403374       -10.9764
  65   2.0000      -0.393892       -10.7184
  66   2.0000      -0.386622       -10.5205
  67   2.0000      -0.358465        -9.7543
  68   2.0000      -0.346258        -9.4222
  69   2.0000      -0.343501        -9.3471
  70   2.0000      -0.312446        -8.5021
  71   2.0000      -0.308809        -8.4031
  72   2.0000      -0.292394        -7.9565
  73   2.0000      -0.279198        -7.5974
  74   2.0000      -0.277083        -7.5398
  75   2.0000      -0.259544        -7.0625
  76   2.0000      -0.244476        -6.6525
  77   2.0000      -0.233574        -6.3559
  78   2.0000      -0.220121        -5.9898
  79   2.0000      -0.211344        -5.7510
  80   0.0000      -0.113057        -3.0764
  81   0.0000      -0.081402        -2.2151
  82   0.0000      -0.063060        -1.7159
  83   0.0000      -0.051369        -1.3978
  84   0.0000      -0.042300        -1.1510

MULLIKEN ATOMIC CHARGES
-----------------------
   0 Re:   -0.155631
   1 C :    0.635707
   2 C :    0.814341
   3 C :    0.159298
   4 Br:   -0.572119
   5 O :   -0.385701
   6 O :   -0.282294
   7 O :   -0.317496
   8 C :   -1.205653
   9 C :    0.268855
  10 C :    1.541728
  11 C :    0.707809
  12 O :   -0.695428
  13 O :   -0.351126
  14 C :   -0.143285
  15 O :   -0.451992
  16 H :    0.268348
  17 C :   -0.043821
  18 H :    0.055482
  19 H :    0.094377
  20 H :    0.099818
  21 H :    0.014623
  22 H :   -0.163523
  23 H :    0.043232
  24 H :    0.064454
Sum of atomic charges:    0.0000000

LOEWDIN ATOMIC CHARGES
----------------------
   0 Re:    0.628065
   1 C :   -0.255771
   2 C :   -0.323121
   3 C :   -0.291743
   4 Br:    0.177164
   5 O :    0.150508
   6 O :    0.155360
   7 O :    0.168571
   8 C :   -0.035263
   9 C :   -0.087904
  10 C :   -0.108170
  11 C :   -0.439549
  12 O :    0.150766
  13 O :    0.063615
  14 C :   -0.156433
  15 O :    0.147717
  16 H :   -0.169265
  17 C :    0.182524
  18 H :    0.009430
  19 H :    0.011607
  20 H :    0.012996
  21 H :   -0.065500
  22 H :    0.050018
  23 H :    0.003813
  24 H :    0.020563

  Mayer bond orders larger than 0.100000
B(  0-Re,  1-C ) :   1.0563 B(  0-Re,  2-C ) :   1.2959 B(  0-Re,  3-C ) :   1.4355
B(  0-Re,  4-Br) :   0.3076 B(  0-Re,  6-O ) :   0.1200 B(  0-Re,  7-O ) :   0.1103
B(  0-Re,  8-C ) :   0.1722 B(  0-Re,  9-C ) :   0.5563 B(  0-Re, 14-C ) :   0.7033
B(  0-Re, 15-O ) :   0.4974 B(  1-C ,  6-O ) :   2.0284 B(  2-C ,  7-O ) :   1.9627
B(  3-C ,  5-O ) :   1.8401 B(  3-C , 14-C ) :   0.1991 B(  8-C ,  9-C ) :   2.0370
B(  8-C , 10-C ) :   0.2319 B(  8-C , 11-C ) :   0.2606 B(  8-C , 14-C ) :   0.4563
B(  8-C , 23-H ) :   1.1162 B(  9-C , 10-C ) :  -0.1170 B(  9-C , 21-H ) :   0.9728
B( 10-C , 11-C ) :   0.6166 B( 10-C , 14-C ) :   0.7621 B( 10-C , 15-O ) :   0.1114
B( 10-C , 22-H ) :   0.8774 B( 10-C , 23-H ) :  -0.1420 B( 11-C , 12-O ) :   1.0896
B( 11-C , 13-O ) :   0.6811 B( 11-C , 14-C ) :   0.2245 B( 12-O , 13-O ) :   0.1151
B( 12-O , 14-C ) :   0.1258 B( 13-O , 17-C ) :   0.8831 B( 14-C , 15-O ) :   0.4872
B( 14-C , 24-H ) :   0.9309 B( 15-O , 16-H ) :   0.8704 B( 17-C , 18-H ) :   1.0405
B( 17-C , 19-H ) :   0.9648 B( 17-C , 20-H ) :   0.9569

Dispersion correction           -0.047821343
FINAL SINGLE POINT ENERGY     -3452.114713655136

DIPOLE MOMENT
-------------
                                X             Y             Z
Electronic contribution:    122.92530      29.75111      -3.22188
Nuclear contribution   :   -125.53088     -28.89018       3.09124
                        -----------------------------------------
Total Dipole Moment    :     -2.60558       0.86093      -0.13064
                        -----------------------------------------
Magnitude (a.u.)       :      2.74724
Magnitude (Debye)      :      6.98293

Rotational constants in cm-1:     0.016025     0.007116     0.006337
Rotational constants in MHz :   480.407323   213.341783   189.987107

                             ****ORCA TERMINATED NORMALLY****
TOTAL RUN TIME: 0 days 0 hours 0 minutes 29 seconds 30 msec
