                         Program Version 4.2.0 -  RELEASE  -
|  1> #
|  2> # TMB31_T1 TPSS-D3BJ/Def2-TZVPPD
|  3> #
|  4> ! tpss d3bj def2-tzvppd def2/j grid4 nofinalgrid
|  5>
|  6> *xyz 1 1
|  7> Ir       0.050361    0.056236   -0.150076
|  8> C        0.978842   -1.302743   -1.517387
|  9> C       -1.864665    1.028637    0.563211
| 10> C       -1.426558    0.128925    1.555248
| 11> C       -1.389999   -1.187568    0.972706
| 12> C       -1.852948   -1.076424   -0.368776
| 13> C       -2.115280    0.291316   -0.640524
| 14> H        0.395138   -1.326753   -2.435403
| 15> H        2.003015   -1.039631   -1.784042
| 16> H        0.978935   -2.299217   -1.075482
| 17> H       -1.949414   -1.889112   -1.072248
| 18> H       -2.488115    0.695321   -1.568578
| 19> H       -1.982151    2.094988    0.682898
| 20> H       -1.179131    0.379256    2.575311
| 21> H       -1.144965   -2.105263    1.484015
| 22> C        0.981659    2.033847   -0.552795
| 23> H        0.609290    0.819803   -1.428069
| 24> H        0.362656    2.677374   -1.174650
| 25> H        1.003724    2.445002    0.454509
| 26> H        1.994491    2.026607   -0.953376
| 27> P        1.998129   -0.331589    0.938590
| 28> H        2.205383    0.285042    2.190624
| 29> H        2.302734   -1.672090    1.247762
| 30> H        3.172367    0.056392    0.263634
| 31> *
| 32>
| 33> %maxcore 5000
| 34>
| 35> %pal
| 36> nprocs = 24
| 37> end
| 38>
| 39>
| 40>                          ****END OF INPUT****

CARTESIAN COORDINATES (ANGSTROEM)
---------------------------------
  Ir     0.050361    0.056236   -0.150076
  C      0.978842   -1.302743   -1.517387
  C     -1.864665    1.028637    0.563211
  C     -1.426558    0.128925    1.555248
  C     -1.389999   -1.187568    0.972706
  C     -1.852948   -1.076424   -0.368776
  C     -2.115280    0.291316   -0.640524
  H      0.395138   -1.326753   -2.435403
  H      2.003015   -1.039631   -1.784042
  H      0.978935   -2.299217   -1.075482
  H     -1.949414   -1.889112   -1.072248
  H     -2.488115    0.695321   -1.568578
  H     -1.982151    2.094988    0.682898
  H     -1.179131    0.379256    2.575311
  H     -1.144965   -2.105263    1.484015
  C      0.981659    2.033847   -0.552795
  H      0.609290    0.819803   -1.428069
  H      0.362656    2.677374   -1.174650
  H      1.003724    2.445002    0.454509
  H      1.994491    2.026607   -0.953376
  P      1.998129   -0.331589    0.938590
  H      2.205383    0.285042    2.190624
  H      2.302734   -1.672090    1.247762
  H      3.172367    0.056392    0.263634

 Total Charge           Charge          ....    1
 Multiplicity           Mult            ....    1
 Number of Electrons    NEL             ....   88
 Basis Dimension        Dim             ....  621

ORBITAL ENERGIES
----------------

  NO   OCC          E(Eh)            E(eV)
   0   2.0000     -76.787179     -2089.4854
   1   2.0000     -10.177203      -276.9358
   2   2.0000     -10.175602      -276.8922
   3   2.0000     -10.174762      -276.8693
   4   2.0000     -10.173926      -276.8466
   5   2.0000     -10.172636      -276.8115
   6   2.0000     -10.158388      -276.4238
   7   2.0000     -10.126938      -275.5680
   8   2.0000      -6.562467      -178.5738
   9   2.0000      -4.739542      -128.9695
  10   2.0000      -4.739478      -128.9678
  11   2.0000      -4.737688      -128.9190
  12   2.0000      -3.768661      -102.5505
  13   2.0000      -2.149046       -58.4785
  14   2.0000      -2.134566       -58.0845
  15   2.0000      -2.127259       -57.8857
  16   2.0000      -1.007154       -27.4061
  17   2.0000      -0.840867       -22.8812
  18   2.0000      -0.836255       -22.7557
  19   2.0000      -0.808467       -21.9995
  20   2.0000      -0.785499       -21.3745
  21   2.0000      -0.764787       -20.8109
  22   2.0000      -0.673672       -18.3315
  23   2.0000      -0.672775       -18.3071
  24   2.0000      -0.662150       -18.0180
  25   2.0000      -0.585280       -15.9263
  26   2.0000      -0.563150       -15.3241
  27   2.0000      -0.554850       -15.0982
  28   2.0000      -0.552548       -15.0356
  29   2.0000      -0.543765       -14.7966
  30   2.0000      -0.537271       -14.6199
  31   2.0000      -0.517728       -14.0881
  32   2.0000      -0.515752       -14.0343
  33   2.0000      -0.514159       -13.9910
  34   2.0000      -0.504196       -13.7199
  35   2.0000      -0.501466       -13.6456
  36   2.0000      -0.495426       -13.4812
  37   2.0000      -0.488269       -13.2865
  38   2.0000      -0.463629       -12.6160
  39   2.0000      -0.430423       -11.7124
  40   2.0000      -0.416139       -11.3237
  41   2.0000      -0.391879       -10.6636
  42   2.0000      -0.386807       -10.5256
  43   2.0000      -0.370443       -10.0803
  44   0.0000      -0.216283        -5.8854
  45   0.0000      -0.196806        -5.3554
  46   0.0000      -0.165389        -4.5005
  47   0.0000      -0.156647        -4.2626
  48   0.0000      -0.153083        -4.1656

MULLIKEN ATOMIC CHARGES
-----------------------
   0 Ir:    0.231180
   1 C :   -0.655947
   2 C :    0.020564
   3 C :    0.160138
   4 C :    0.365751
   5 C :   -0.082160
   6 C :    0.274697
   7 H :    0.169668
   8 H :    0.236456
   9 H :    0.185105
  10 H :   -0.031675
  11 H :   -0.086322
  12 H :   -0.024387
  13 H :   -0.046626
  14 H :   -0.035709
  15 C :   -0.495886
  16 H :    0.058903
  17 H :    0.115171
  18 H :    0.201152
  19 H :    0.207650
  20 P :   -0.015668
  21 H :    0.076666
  22 H :    0.087241
  23 H :    0.084039
Sum of atomic charges:    1.0000000

LOEWDIN ATOMIC CHARGES
----------------------
   0 Ir:    1.046884
   1 C :    0.010646
   2 C :   -0.048928
   3 C :   -0.061062
   4 C :   -0.077301
   5 C :   -0.058602
   6 C :   -0.045430
   7 H :   -0.074877
   8 H :   -0.089936
   9 H :   -0.081034
  10 H :    0.025531
  11 H :    0.021169
  12 H :    0.023386
  13 H :    0.016431
  14 H :    0.016516
  15 C :    0.091005
  16 H :   -0.104824
  17 H :   -0.050623
  18 H :   -0.069464
  19 H :   -0.062407
  20 P :    0.925189
  21 H :   -0.123951
  22 H :   -0.116446
  23 H :   -0.111873

  Mayer bond orders larger than 0.100000
B(  0-Ir,  1-C ) :   0.6542 B(  0-Ir,  2-C ) :   0.4170 B(  0-Ir,  3-C ) :   0.4514
B(  0-Ir,  4-C ) :   0.4973 B(  0-Ir,  5-C ) :   0.4630 B(  0-Ir,  6-C ) :   0.4535
B(  0-Ir, 15-C ) :   0.5163 B(  0-Ir, 16-H ) :   0.5581 B(  0-Ir, 20-P ) :   0.9473
B(  1-C ,  5-C ) :   0.1399 B(  1-C ,  7-H ) :   0.9720 B(  1-C ,  8-H ) :   0.9203
B(  1-C ,  9-H ) :   0.9727 B(  1-C , 20-P ) :   0.1003 B(  2-C ,  3-C ) :   1.0962
B(  2-C ,  4-C ) :  -0.1361 B(  2-C ,  6-C ) :   0.9280 B(  2-C , 12-H ) :   1.0680
B(  2-C , 15-C ) :   0.1390 B(  3-C ,  4-C ) :   0.8466 B(  3-C ,  5-C ) :  -0.1013
B(  3-C ,  6-C ) :  -0.1438 B(  3-C , 13-H ) :   1.0767 B(  4-C ,  5-C ) :   0.9389
B(  4-C ,  6-C ) :  -0.1663 B(  4-C , 14-H ) :   0.9889 B(  5-C ,  6-C ) :   1.0452
B(  5-C , 10-H ) :   1.0696 B(  6-C , 11-H ) :   0.9929 B( 15-C , 16-H ) :   0.3454
B( 15-C , 17-H ) :   0.9874 B( 15-C , 18-H ) :   0.9325 B( 15-C , 19-H ) :   0.9238
B( 20-P , 21-H ) :   0.9299 B( 20-P , 22-H ) :   0.9253 B( 20-P , 23-H ) :   0.9416

Dispersion correction           -0.040088792
FINAL SINGLE POINT ENERGY      -721.511645206471

DIPOLE MOMENT
-------------
                                X             Y             Z
Electronic contribution:      4.74215       6.82237     -17.58370
Nuclear contribution   :     -4.43915      -6.73459      18.18954
                        -----------------------------------------
Total Dipole Moment    :      0.30300       0.08778       0.60584
                        -----------------------------------------
Magnitude (a.u.)       :      0.68305
Magnitude (Debye)      :      1.73618

Rotational constants in cm-1:     0.054508     0.031967     0.031168
Rotational constants in MHz :  1634.105298   958.356108   934.407674

                             ****ORCA TERMINATED NORMALLY****
TOTAL RUN TIME: 0 days 0 hours 0 minutes 20 seconds 661 msec
