                         Program Version 4.2.0 -  RELEASE  -
|  1> #
|  2> # TMB31_C1 TPSS-D3BJ/Def2-TZVPPD
|  3> #
|  4> ! tpss d3bj def2-tzvppd def2/j grid4 nofinalgrid
|  5>
|  6> *xyz 1 1
|  7> Ir      -0.040708    0.096324    0.064455
|  8> C       -0.971708    0.418734    1.931461
|  9> C        1.819460    0.364204   -1.190947
| 10> C        1.490903   -0.994938   -1.162590
| 11> C        1.450197   -1.406167    0.225985
| 12> C        1.875844   -0.290195    1.023097
| 13> C        2.052625    0.814608    0.164170
| 14> H       -0.394638    1.150210    2.498372
| 15> H       -1.993156    0.794195    1.837094
| 16> H       -1.008781   -0.505981    2.508304
| 17> H        1.977900   -0.288415    2.097324
| 18> H        2.352296    1.808383    0.458691
| 19> H        1.885000    0.981073   -2.074563
| 20> H        1.275763   -1.618283   -2.016436
| 21> H        1.275639   -2.406893    0.589421
| 22> C       -1.335861    2.101294   -0.927849
| 23> H       -0.822201    1.778454    0.045587
| 24> H       -0.969200    3.125001   -0.997930
| 25> H       -1.110952    1.579089   -1.850904
| 26> H       -2.401764    2.084149   -0.716661
| 27> P       -1.870306   -1.156932   -0.405763
| 28> H       -1.625569   -2.441008   -0.924735
| 29> H       -2.747711   -1.466666    0.650785
| 30> H       -2.792266   -0.681495   -1.360892
| 31> *
| 32>
| 33> %maxcore 5000
| 34>
| 35> %pal
| 36> nprocs = 24
| 37> end
| 38>
| 39>
| 40>                          ****END OF INPUT****

CARTESIAN COORDINATES (ANGSTROEM)
---------------------------------
  Ir    -0.040708    0.096324    0.064455
  C     -0.971708    0.418734    1.931461
  C      1.819460    0.364204   -1.190947
  C      1.490903   -0.994938   -1.162590
  C      1.450197   -1.406167    0.225985
  C      1.875844   -0.290195    1.023097
  C      2.052625    0.814608    0.164170
  H     -0.394638    1.150210    2.498372
  H     -1.993156    0.794195    1.837094
  H     -1.008781   -0.505981    2.508304
  H      1.977900   -0.288415    2.097324
  H      2.352296    1.808383    0.458691
  H      1.885000    0.981073   -2.074563
  H      1.275763   -1.618283   -2.016436
  H      1.275639   -2.406893    0.589421
  C     -1.335861    2.101294   -0.927849
  H     -0.822201    1.778454    0.045587
  H     -0.969200    3.125001   -0.997930
  H     -1.110952    1.579089   -1.850904
  H     -2.401764    2.084149   -0.716661
  P     -1.870306   -1.156932   -0.405763
  H     -1.625569   -2.441008   -0.924735
  H     -2.747711   -1.466666    0.650785
  H     -2.792266   -0.681495   -1.360892

 Total Charge           Charge          ....    1
 Multiplicity           Mult            ....    1
 Number of Electrons    NEL             ....   88
 Basis Dimension        Dim             ....  621

ORBITAL ENERGIES
----------------

  NO   OCC          E(Eh)            E(eV)
   0   2.0000     -76.778261     -2089.2427
   1   2.0000     -10.182318      -277.0750
   2   2.0000     -10.180446      -277.0240
   3   2.0000     -10.175822      -276.8982
   4   2.0000     -10.174786      -276.8700
   5   2.0000     -10.172889      -276.8184
   6   2.0000     -10.153435      -276.2890
   7   2.0000     -10.110370      -275.1172
   8   2.0000      -6.554042      -178.3445
   9   2.0000      -4.731146      -128.7410
  10   2.0000      -4.730969      -128.7362
  11   2.0000      -4.729175      -128.6874
  12   2.0000      -3.757396      -102.2440
  13   2.0000      -2.142123       -58.2901
  14   2.0000      -2.123515       -57.7838
  15   2.0000      -2.112698       -57.4894
  16   2.0000      -1.008179       -27.4339
  17   2.0000      -0.844480       -22.9795
  18   2.0000      -0.836701       -22.7678
  19   2.0000      -0.824848       -22.4453
  20   2.0000      -0.781300       -21.2603
  21   2.0000      -0.755826       -20.5671
  22   2.0000      -0.675625       -18.3847
  23   2.0000      -0.673671       -18.3315
  24   2.0000      -0.663604       -18.0576
  25   2.0000      -0.578054       -15.7296
  26   2.0000      -0.560131       -15.2419
  27   2.0000      -0.550218       -14.9722
  28   2.0000      -0.546210       -14.8631
  29   2.0000      -0.543422       -14.7873
  30   2.0000      -0.536515       -14.5993
  31   2.0000      -0.525703       -14.3051
  32   2.0000      -0.518195       -14.1008
  33   2.0000      -0.516766       -14.0619
  34   2.0000      -0.515803       -14.0357
  35   2.0000      -0.495077       -13.4717
  36   2.0000      -0.488902       -13.3037
  37   2.0000      -0.483732       -13.1630
  38   2.0000      -0.457213       -12.4414
  39   2.0000      -0.432399       -11.7662
  40   2.0000      -0.414154       -11.2697
  41   2.0000      -0.385962       -10.5026
  42   2.0000      -0.373412       -10.1610
  43   2.0000      -0.356699        -9.7063
  44   0.0000      -0.245234        -6.6731
  45   0.0000      -0.191340        -5.2066
  46   0.0000      -0.152151        -4.1403
  47   0.0000      -0.149335        -4.0636
  48   0.0000      -0.143648        -3.9089

MULLIKEN ATOMIC CHARGES
-----------------------
   0 Ir:    0.139540
   1 C :   -0.680794
   2 C :    0.068539
   3 C :    0.066492
   4 C :    0.485864
   5 C :   -0.160951
   6 C :    0.221234
   7 H :    0.178331
   8 H :    0.236486
   9 H :    0.174838
  10 H :   -0.065957
  11 H :   -0.071961
  12 H :   -0.005381
  13 H :   -0.020900
  14 H :   -0.025872
  15 C :   -0.294182
  16 H :    0.116644
  17 H :    0.023183
  18 H :    0.195196
  19 H :    0.124942
  20 P :    0.082358
  21 H :    0.073115
  22 H :    0.071489
  23 H :    0.067744
Sum of atomic charges:    1.0000000

LOEWDIN ATOMIC CHARGES
----------------------
   0 Ir:    0.949776
   1 C :   -0.013828
   2 C :   -0.047177
   3 C :   -0.058773
   4 C :   -0.094276
   5 C :   -0.054808
   6 C :   -0.046110
   7 H :   -0.079654
   8 H :   -0.093170
   9 H :   -0.084630
  10 H :    0.026928
  11 H :    0.020487
  12 H :    0.020635
  13 H :    0.014887
  14 H :    0.017308
  15 C :    0.263463
  16 H :   -0.151780
  17 H :   -0.019043
  18 H :   -0.059866
  19 H :   -0.030619
  20 P :    0.915196
  21 H :   -0.134825
  22 H :   -0.125476
  23 H :   -0.134646

  Mayer bond orders larger than 0.100000
B(  0-Ir,  1-C ) :   0.6465 B(  0-Ir,  2-C ) :   0.4691 B(  0-Ir,  3-C ) :   0.4281
B(  0-Ir,  4-C ) :   0.5569 B(  0-Ir,  5-C ) :   0.5963 B(  0-Ir,  6-C ) :   0.4377
B(  0-Ir, 15-C ) :   0.2865 B(  0-Ir, 16-H ) :   0.1523 B(  0-Ir, 20-P ) :   1.0287
B(  1-C ,  5-C ) :   0.1563 B(  1-C ,  7-H ) :   0.9670 B(  1-C ,  8-H ) :   0.9231
B(  1-C ,  9-H ) :   0.9793 B(  2-C ,  3-C ) :   1.1146 B(  2-C ,  4-C ) :  -0.1356
B(  2-C ,  6-C ) :   0.8645 B(  2-C , 12-H ) :   1.0612 B(  3-C ,  4-C ) :   0.8745
B(  3-C ,  6-C ) :  -0.1536 B(  3-C , 13-H ) :   1.1030 B(  4-C ,  5-C ) :   0.8253
B(  4-C ,  6-C ) :  -0.1622 B(  4-C , 14-H ) :   0.9488 B(  5-C ,  6-C ) :   1.0975
B(  5-C , 10-H ) :   1.0674 B(  6-C , 11-H ) :   1.0104 B( 15-C , 16-H ) :   0.8843
B( 15-C , 17-H ) :   0.9454 B( 15-C , 18-H ) :   0.9286 B( 15-C , 19-H ) :   0.9414
B( 16-H , 17-H ) :   0.1084 B( 20-P , 21-H ) :   0.9256 B( 20-P , 22-H ) :   0.9233
B( 20-P , 23-H ) :   0.9233

Dispersion correction           -0.038994394
FINAL SINGLE POINT ENERGY      -721.525916825398

DIPOLE MOMENT
-------------
                                X             Y             Z
Electronic contribution:     -2.89175      10.06539       7.33766
Nuclear contribution   :      2.66689     -10.24599      -8.00272
                        -----------------------------------------
Total Dipole Moment    :     -0.22487      -0.18060      -0.66506
                        -----------------------------------------
Magnitude (a.u.)       :      0.72490
Magnitude (Debye)      :      1.84255

Rotational constants in cm-1:     0.050543     0.032436     0.029954
Rotational constants in MHz :  1515.232111   972.406510   898.012536

                             ****ORCA TERMINATED NORMALLY****
TOTAL RUN TIME: 0 days 0 hours 0 minutes 22 seconds 722 msec
