                         Program Version 4.2.0 -  RELEASE  -
|  1> #
|  2> # TMD07_Ti TPSS-D3BJ/Def2-TZVPPD
|  3> #
|  4> ! tpss d3bj def2-tzvppd def2/j grid4 nofinalgrid
|  5>
|  6> *xyz 0 3
|  7> Ti       0.000000    0.000000    0.000000
|  8> *
|  9>
| 10> %maxcore 5000
| 11>
| 12> %pal
| 13> nprocs = 24
| 14> end
| 15>
| 16>
| 17>                          ****END OF INPUT****

CARTESIAN COORDINATES (ANGSTROEM)
---------------------------------
  Ti     0.000000    0.000000    0.000000

 Total Charge           Charge          ....    0
 Multiplicity           Mult            ....    3
 Number of Electrons    NEL             ....   22
 Basis Dimension        Dim             ....   67

ORBITAL ENERGIES
----------------
                 SPIN UP ORBITALS
  NO   OCC          E(Eh)            E(eV)
   0   1.0000    -178.160106     -4847.9830
   1   1.0000     -19.559163      -532.2319
   2   1.0000     -16.287081      -443.1940
   3   1.0000     -16.286844      -443.1875
   4   1.0000     -16.286835      -443.1873
   5   1.0000      -2.276878       -61.9570
   6   1.0000      -1.416168       -38.5359
   7   1.0000      -1.416152       -38.5355
   8   1.0000      -1.413822       -38.4720
   9   1.0000      -0.172651        -4.6981
  10   1.0000      -0.172635        -4.6976
  11   1.0000      -0.161881        -4.4050
  12   0.0000      -0.118304        -3.2192
  13   0.0000      -0.118296        -3.2190
  14   0.0000      -0.113275        -3.0824
  15   0.0000      -0.055781        -1.5179
  16   0.0000      -0.055775        -1.5177

                 SPIN DOWN ORBITALS
  NO   OCC          E(Eh)            E(eV)
   0   1.0000    -178.159964     -4847.9791
   1   1.0000     -19.541439      -531.7496
   2   1.0000     -16.275665      -442.8833
   3   1.0000     -16.271193      -442.7617
   4   1.0000     -16.271181      -442.7613
   5   1.0000      -2.219805       -60.4040
   6   1.0000      -1.362760       -37.0826
   7   1.0000      -1.355096       -36.8740
   8   1.0000      -1.355070       -36.8733
   9   1.0000      -0.142831        -3.8866
  10   0.0000      -0.103438        -2.8147
  11   0.0000      -0.096027        -2.6130
  12   0.0000      -0.096016        -2.6127
  13   0.0000      -0.070635        -1.9221
  14   0.0000      -0.070627        -1.9219

MULLIKEN ATOMIC CHARGES AND SPIN POPULATIONS
--------------------------------------------
   0 Ti:   -0.000000    2.000000
Sum of atomic charges         :   -0.0000000

LOEWDIN ATOMIC CHARGES AND SPIN POPULATIONS
-------------------------------------------
   0 Ti:   -0.000000    2.000000

Dispersion correction            0.000000000
FINAL SINGLE POINT ENERGY      -849.369889395011

DIPOLE MOMENT
-------------
                                X             Y             Z
Electronic contribution:     -0.00000       0.00000       0.00000
Nuclear contribution   :      0.00000       0.00000       0.00000
                        -----------------------------------------
Total Dipole Moment    :     -0.00000       0.00000       0.00000
                        -----------------------------------------
Magnitude (a.u.)       :      0.00000
Magnitude (Debye)      :      0.00000

Rotational constants in cm-1:     0.000000     0.000000     0.000000
Rotational constants in MHz :     0.000000     0.000000     0.000000

                             ****ORCA TERMINATED NORMALLY****
TOTAL RUN TIME: 0 days 0 hours 0 minutes 6 seconds 306 msec
