                         Program Version 4.2.0 -  RELEASE  -
|  1> #
|  2> # TMD09_Cr TPSS-D3BJ/Def2-TZVPPD
|  3> #
|  4> ! tpss d3bj def2-tzvppd def2/j grid4 nofinalgrid
|  5>
|  6> *xyz 0 7
|  7> Cr       0.000000    0.000000    0.000000
|  8> *
|  9>
| 10> %maxcore 5000
| 11>
| 12> %pal
| 13> nprocs = 24
| 14> end
| 15>
| 16>
| 17>                          ****END OF INPUT****

CARTESIAN COORDINATES (ANGSTROEM)
---------------------------------
  Cr     0.000000    0.000000    0.000000

 Total Charge           Charge          ....    0
 Multiplicity           Mult            ....    7
 Number of Electrons    NEL             ....   24
 Basis Dimension        Dim             ....   67

ORBITAL ENERGIES
----------------
                 SPIN UP ORBITALS
  NO   OCC          E(Eh)            E(eV)
   0   1.0000    -214.868615     -5846.8723
   1   1.0000     -24.264876      -660.2808
   2   1.0000     -20.567890      -559.6807
   3   1.0000     -20.567890      -559.6807
   4   1.0000     -20.567890      -559.6807
   5   1.0000      -2.732228       -74.3477
   6   1.0000      -1.707943       -46.4755
   7   1.0000      -1.707943       -46.4755
   8   1.0000      -1.707943       -46.4755
   9   1.0000      -0.159797        -4.3483
  10   1.0000      -0.139037        -3.7834
  11   1.0000      -0.139037        -3.7834
  12   1.0000      -0.139037        -3.7834
  13   1.0000      -0.139037        -3.7834
  14   1.0000      -0.139037        -3.7834
  15   0.0000      -0.041624        -1.1326
  16   0.0000      -0.041624        -1.1326
  17   0.0000      -0.041624        -1.1326
  18   0.0000       0.062254         1.6940
  19   0.0000       0.062254         1.6940

                 SPIN DOWN ORBITALS
  NO   OCC          E(Eh)            E(eV)
   0   1.0000    -214.867431     -5846.8401
   1   1.0000     -24.210104      -658.7904
   2   1.0000     -20.523536      -558.4738
   3   1.0000     -20.523536      -558.4738
   4   1.0000     -20.523536      -558.4738
   5   1.0000      -2.564325       -69.7788
   6   1.0000      -1.537960       -41.8500
   7   1.0000      -1.537960       -41.8500
   8   1.0000      -1.537960       -41.8500
   9   0.0000      -0.052721        -1.4346
  10   0.0000       0.015197         0.4135
  11   0.0000       0.015197         0.4135
  12   0.0000       0.015197         0.4135
  13   0.0000       0.015197         0.4135

MULLIKEN ATOMIC CHARGES AND SPIN POPULATIONS
--------------------------------------------
   0 Cr:   -0.000000    6.000000
Sum of atomic charges         :   -0.0000000

LOEWDIN ATOMIC CHARGES AND SPIN POPULATIONS
-------------------------------------------
   0 Cr:    0.000000    6.000000

Dispersion correction            0.000000000
FINAL SINGLE POINT ENERGY     -1044.461977870146

DIPOLE MOMENT
-------------
                                X             Y             Z
Electronic contribution:     -0.00000      -0.00000       0.00000
Nuclear contribution   :      0.00000       0.00000       0.00000
                        -----------------------------------------
Total Dipole Moment    :     -0.00000      -0.00000       0.00000
                        -----------------------------------------
Magnitude (a.u.)       :      0.00000
Magnitude (Debye)      :      0.00000

Rotational constants in cm-1:     0.000000     0.000000     0.000000
Rotational constants in MHz :     0.000000     0.000000     0.000000

                             ****ORCA TERMINATED NORMALLY****
TOTAL RUN TIME: 0 days 0 hours 0 minutes 2 seconds 541 msec
