                         Program Version 4.2.0 -  RELEASE  -
|  1> #
|  2> # TMD04_S TPSS-D3BJ/Def2-TZVPPD
|  3> #
|  4> ! tpss d3bj def2-tzvppd def2/j grid4 nofinalgrid
|  5>
|  6> *xyz 0 3
|  7> S        0.000000    0.000000    0.000000
|  8> *
|  9>
| 10> %maxcore 5000
| 11>
| 12> %pal
| 13> nprocs = 24
| 14> end
| 15>
| 16>
| 17>                          ****END OF INPUT****

CARTESIAN COORDINATES (ANGSTROEM)
---------------------------------
  S      0.000000    0.000000    0.000000

 Total Charge           Charge          ....    0
 Multiplicity           Mult            ....    3
 Number of Electrons    NEL             ....   16
 Basis Dimension        Dim             ....   51

ORBITAL ENERGIES
----------------
                 SPIN UP ORBITALS
  NO   OCC          E(Eh)            E(eV)
   0   1.0000     -88.415250     -2405.9013
   1   1.0000      -7.791306      -212.0122
   2   1.0000      -5.776357      -157.1827
   3   1.0000      -5.776357      -157.1827
   4   1.0000      -5.757142      -156.6598
   5   1.0000      -0.673118       -18.3165
   6   1.0000      -0.304718        -8.2918
   7   1.0000      -0.304718        -8.2918
   8   1.0000      -0.254108        -6.9146
   9   0.0000       0.020248         0.5510
  10   0.0000       0.034449         0.9374
  11   0.0000       0.034452         0.9375
  12   0.0000       0.040224         1.0946
  13   0.0000       0.103026         2.8035

                 SPIN DOWN ORBITALS
  NO   OCC          E(Eh)            E(eV)
   0   1.0000     -88.404473     -2405.6080
   1   1.0000      -7.782077      -211.7611
   2   1.0000      -5.758726      -156.7029
   3   1.0000      -5.758726      -156.7029
   4   1.0000      -5.751378      -156.5029
   5   1.0000      -0.585701       -15.9377
   6   1.0000      -0.232410        -6.3242
   7   0.0000      -0.200652        -5.4600
   8   0.0000      -0.200652        -5.4600
   9   0.0000       0.037905         1.0314
  10   0.0000       0.043457         1.1825
  11   0.0000       0.051465         1.4004

MULLIKEN ATOMIC CHARGES AND SPIN POPULATIONS
--------------------------------------------
   0 S :    0.000000    2.000000
Sum of atomic charges         :    0.0000000

LOEWDIN ATOMIC CHARGES AND SPIN POPULATIONS
-------------------------------------------
   0 S :    0.000000    2.000000

Dispersion correction            0.000000000
FINAL SINGLE POINT ENERGY      -398.136014914930

DIPOLE MOMENT
-------------
                                X             Y             Z
Electronic contribution:     -0.00000       0.00000      -0.00000
Nuclear contribution   :      0.00000       0.00000       0.00000
                        -----------------------------------------
Total Dipole Moment    :     -0.00000       0.00000      -0.00000
                        -----------------------------------------
Magnitude (a.u.)       :      0.00000
Magnitude (Debye)      :      0.00000

Rotational constants in cm-1:     0.000000     0.000000     0.000000
Rotational constants in MHz :     0.000000     0.000000     0.000000

                             ****ORCA TERMINATED NORMALLY****
TOTAL RUN TIME: 0 days 0 hours 0 minutes 2 seconds 389 msec
