                         Program Version 4.2.0 -  RELEASE  -
|  1> #
|  2> # TMD05_Cl TPSS-D3BJ/Def2-TZVPPD
|  3> #
|  4> ! tpss d3bj def2-tzvppd def2/j grid4 nofinalgrid
|  5>
|  6> *xyz 0 2
|  7> Cl       0.000000    0.000000    0.000000
|  8> *
|  9>
| 10> %maxcore 5000
| 11>
| 12> %pal
| 13> nprocs = 24
| 14> end
| 15>
| 16>
| 17>                          ****END OF INPUT****

CARTESIAN COORDINATES (ANGSTROEM)
---------------------------------
  Cl     0.000000    0.000000    0.000000

 Total Charge           Charge          ....    0
 Multiplicity           Mult            ....    2
 Number of Electrons    NEL             ....   17
 Basis Dimension        Dim             ....   51

ORBITAL ENERGIES
----------------
                 SPIN UP ORBITALS
  NO   OCC          E(Eh)            E(eV)
   0   1.0000    -101.043539     -2749.5345
   1   1.0000      -9.289693      -252.7854
   2   1.0000      -7.078852      -192.6254
   3   1.0000      -7.056448      -192.0157
   4   1.0000      -7.056448      -192.0157
   5   1.0000      -0.788595       -21.4588
   6   1.0000      -0.374818       -10.1993
   7   1.0000      -0.317730        -8.6459
   8   1.0000      -0.317730        -8.6459
   9   0.0000       0.036203         0.9851
  10   0.0000       0.042838         1.1657
  11   0.0000       0.048726         1.3259
  12   0.0000       0.048730         1.3260
  13   0.0000       0.138805         3.7771

                 SPIN DOWN ORBITALS
  NO   OCC          E(Eh)            E(eV)
   0   1.0000    -101.036955     -2749.3553
   1   1.0000      -9.284497      -252.6440
   2   1.0000      -7.061433      -192.1514
   3   1.0000      -7.053160      -191.9262
   4   1.0000      -7.053160      -191.9262
   5   1.0000      -0.740858       -20.1598
   6   1.0000      -0.303724        -8.2648
   7   1.0000      -0.303724        -8.2647
   8   0.0000      -0.277422        -7.5490
   9   0.0000       0.044640         1.2147
  10   0.0000       0.050114         1.3637
  11   0.0000       0.050117         1.3637
  12   0.0000       0.054312         1.4779

MULLIKEN ATOMIC CHARGES AND SPIN POPULATIONS
--------------------------------------------
   0 Cl:   -0.000000    1.000000
Sum of atomic charges         :   -0.0000000

LOEWDIN ATOMIC CHARGES AND SPIN POPULATIONS
-------------------------------------------
   0 Cl:   -0.000000    1.000000

Dispersion correction            0.000000000
FINAL SINGLE POINT ENERGY      -460.170047431849

DIPOLE MOMENT
-------------
                                X             Y             Z
Electronic contribution:      0.00000       0.00000       0.00000
Nuclear contribution   :      0.00000       0.00000       0.00000
                        -----------------------------------------
Total Dipole Moment    :      0.00000       0.00000       0.00000
                        -----------------------------------------
Magnitude (a.u.)       :      0.00000
Magnitude (Debye)      :      0.00000

Rotational constants in cm-1:     0.000000     0.000000     0.000000
Rotational constants in MHz :     0.000000     0.000000     0.000000

                             ****ORCA TERMINATED NORMALLY****
TOTAL RUN TIME: 0 days 0 hours 0 minutes 2 seconds 247 msec
