                         Program Version 4.2.0 -  RELEASE  -
|  1> #
|  2> # TMD06_Br TPSS-D3BJ/Def2-TZVPPD
|  3> #
|  4> ! tpss d3bj def2-tzvppd def2/j grid4 nofinalgrid
|  5>
|  6> *xyz 0 2
|  7> Br       0.000000    0.000000    0.000000
|  8> *
|  9>
| 10> %maxcore 5000
| 11>
| 12> %pal
| 13> nprocs = 24
| 14> end
| 15>
| 16>
| 17>                          ****END OF INPUT****

CARTESIAN COORDINATES (ANGSTROEM)
---------------------------------
  Br     0.000000    0.000000    0.000000

 Total Charge           Charge          ....    0
 Multiplicity           Mult            ....    2
 Number of Electrons    NEL             ....   35
 Basis Dimension        Dim             ....   57

ORBITAL ENERGIES
----------------
                 SPIN UP ORBITALS
  NO   OCC          E(Eh)            E(eV)
   0   1.0000    -481.767833    -13109.5692
   1   1.0000     -61.983966     -1686.6695
   2   1.0000     -55.819780     -1518.9334
   3   1.0000     -55.814453     -1518.7885
   4   1.0000     -55.814453     -1518.7885
   5   1.0000      -8.514837      -231.7005
   6   1.0000      -6.366633      -173.2449
   7   1.0000      -6.345124      -172.6596
   8   1.0000      -6.345124      -172.6596
   9   1.0000      -2.531560       -68.8872
  10   1.0000      -2.526139       -68.7397
  11   1.0000      -2.526139       -68.7397
  12   1.0000      -2.509855       -68.2966
  13   1.0000      -2.509855       -68.2966
  14   1.0000      -0.739745       -20.1295
  15   1.0000      -0.340956        -9.2779
  16   1.0000      -0.292228        -7.9519
  17   1.0000      -0.292228        -7.9519
  18   0.0000       0.022359         0.6084
  19   0.0000       0.031895         0.8679
  20   0.0000       0.037430         1.0185
  21   0.0000       0.037432         1.0186
  22   0.0000       0.103231         2.8091

                 SPIN DOWN ORBITALS
  NO   OCC          E(Eh)            E(eV)
   0   1.0000    -481.765653    -13109.5099
   1   1.0000     -61.983312     -1686.6517
   2   1.0000     -55.815969     -1518.8297
   3   1.0000     -55.813720     -1518.7685
   4   1.0000     -55.813720     -1518.7685
   5   1.0000      -8.511941      -231.6217
   6   1.0000      -6.359553      -173.0522
   7   1.0000      -6.343720      -172.6214
   8   1.0000      -6.343720      -172.6214
   9   1.0000      -2.523533       -68.6688
  10   1.0000      -2.520169       -68.5773
  11   1.0000      -2.520169       -68.5773
  12   1.0000      -2.508890       -68.2704
  13   1.0000      -2.508890       -68.2704
  14   1.0000      -0.701419       -19.0866
  15   1.0000      -0.278975        -7.5913
  16   1.0000      -0.278975        -7.5913
  17   0.0000      -0.262741        -7.1495
  18   0.0000       0.030398         0.8272
  19   0.0000       0.038792         1.0556
  20   0.0000       0.038795         1.0557
  21   0.0000       0.041757         1.1363

MULLIKEN ATOMIC CHARGES AND SPIN POPULATIONS
--------------------------------------------
   0 Br:    0.000000    1.000000
Sum of atomic charges         :    0.0000000

LOEWDIN ATOMIC CHARGES AND SPIN POPULATIONS
-------------------------------------------
   0 Br:   -0.000000    1.000000

Dispersion correction            0.000000000
FINAL SINGLE POINT ENERGY     -2574.017438930393

DIPOLE MOMENT
-------------
                                X             Y             Z
Electronic contribution:     -0.00000      -0.00000      -0.00000
Nuclear contribution   :      0.00000       0.00000       0.00000
                        -----------------------------------------
Total Dipole Moment    :     -0.00000      -0.00000      -0.00000
                        -----------------------------------------
Magnitude (a.u.)       :      0.00000
Magnitude (Debye)      :      0.00000

Rotational constants in cm-1:     0.000000     0.000000     0.000000
Rotational constants in MHz :     0.000000     0.000000     0.000000

                             ****ORCA TERMINATED NORMALLY****
TOTAL RUN TIME: 0 days 0 hours 0 minutes 2 seconds 341 msec
