                         Program Version 4.2.0 -  RELEASE  -
|  1> #
|  2> # TMD08_V TPSS-D3BJ/Def2-TZVPPD
|  3> #
|  4> ! tpss d3bj def2-tzvppd def2/j grid4 nofinalgrid
|  5>
|  6> *xyz 0 4
|  7> V        0.000000    0.000000    0.000000
|  8> *
|  9>
| 10> %maxcore 5000
| 11>
| 12> %pal
| 13> nprocs = 24
| 14> end
| 15>
| 16>
| 17>                          ****END OF INPUT****

CARTESIAN COORDINATES (ANGSTROEM)
---------------------------------
  V      0.000000    0.000000    0.000000

 Total Charge           Charge          ....    0
 Multiplicity           Mult            ....    4
 Number of Electrons    NEL             ....   23
 Basis Dimension        Dim             ....   67

ORBITAL ENERGIES
----------------
                 SPIN UP ORBITALS
  NO   OCC          E(Eh)            E(eV)
   0   1.0000    -196.137325     -5337.1680
   1   1.0000     -21.909702      -596.1933
   2   1.0000     -18.427462      -501.4367
   3   1.0000     -18.427409      -501.4353
   4   1.0000     -18.421621      -501.2778
   5   1.0000      -2.547460       -69.3199
   6   1.0000      -1.608251       -43.7627
   7   1.0000      -1.604496       -43.6605
   8   1.0000      -1.598512       -43.4977
   9   1.0000      -0.201689        -5.4882
  10   1.0000      -0.192821        -5.2469
  11   1.0000      -0.190048        -5.1715
  12   1.0000      -0.170695        -4.6448
  13   0.0000      -0.151253        -4.1158
  14   0.0000      -0.130565        -3.5528
  15   0.0000      -0.055306        -1.5049
  16   0.0000      -0.053265        -1.4494
  17   0.0000      -0.037973        -1.0333

                 SPIN DOWN ORBITALS
  NO   OCC          E(Eh)            E(eV)
   0   1.0000    -196.137018     -5337.1596
   1   1.0000     -21.877738      -595.3235
   2   1.0000     -18.401375      -500.7269
   3   1.0000     -18.400495      -500.7029
   4   1.0000     -18.397325      -500.6167
   5   1.0000      -2.451258       -66.7021
   6   1.0000      -1.512366       -41.1536
   7   1.0000      -1.508360       -41.0446
   8   1.0000      -1.498624       -40.7796
   9   1.0000      -0.143209        -3.8969
  10   0.0000      -0.108933        -2.9642
  11   0.0000      -0.103162        -2.8072
  12   0.0000      -0.077147        -2.0993
  13   0.0000      -0.075767        -2.0617
  14   0.0000      -0.071850        -1.9551

MULLIKEN ATOMIC CHARGES AND SPIN POPULATIONS
--------------------------------------------
   0 V :   -0.000000    3.000000
Sum of atomic charges         :   -0.0000000

LOEWDIN ATOMIC CHARGES AND SPIN POPULATIONS
-------------------------------------------
   0 V :   -0.000000    3.000000

Dispersion correction            0.000000000
FINAL SINGLE POINT ENERGY      -943.914490063470

DIPOLE MOMENT
-------------
                                X             Y             Z
Electronic contribution:      0.00000      -0.00000       0.00000
Nuclear contribution   :      0.00000       0.00000       0.00000
                        -----------------------------------------
Total Dipole Moment    :      0.00000      -0.00000       0.00000
                        -----------------------------------------
Magnitude (a.u.)       :      0.00000
Magnitude (Debye)      :      0.00000

Rotational constants in cm-1:     0.000000     0.000000     0.000000
Rotational constants in MHz :     0.000000     0.000000     0.000000

                             ****ORCA TERMINATED NORMALLY****
TOTAL RUN TIME: 0 days 0 hours 0 minutes 4 seconds 764 msec
