                         Program Version 4.2.0 -  RELEASE  -
|  1> #
|  2> # TMD03_F TPSS-D3BJ/Def2-TZVPPD
|  3> #
|  4> ! tpss d3bj def2-tzvppd def2/j grid4 nofinalgrid
|  5>
|  6> *xyz 0 2
|  7> F        0.000000    0.000000    0.000000
|  8> *
|  9>
| 10> %maxcore 5000
| 11>
| 12> %pal
| 13> nprocs = 24
| 14> end
| 15>
| 16>
| 17>                          ****END OF INPUT****

CARTESIAN COORDINATES (ANGSTROEM)
---------------------------------
  F      0.000000    0.000000    0.000000

 Total Charge           Charge          ....    0
 Multiplicity           Mult            ....    2
 Number of Electrons    NEL             ....    9
 Basis Dimension        Dim             ....   40

ORBITAL ENERGIES
----------------
                 SPIN UP ORBITALS
  NO   OCC          E(Eh)            E(eV)
   0   1.0000     -24.515317      -667.0957
   1   1.0000      -1.152276       -31.3550
   2   1.0000      -0.502810       -13.6822
   3   1.0000      -0.410981       -11.1834
   4   1.0000      -0.410981       -11.1834
   5   0.0000       0.066674         1.8143
   6   0.0000       0.087198         2.3728
   7   0.0000       0.093477         2.5436
   8   0.0000       0.093477         2.5436
   9   0.0000       0.443988        12.0815

                 SPIN DOWN ORBITALS
  NO   OCC          E(Eh)            E(eV)
   0   1.0000     -24.484319      -666.2522
   1   1.0000      -1.071980       -29.1701
   2   1.0000      -0.384894       -10.4735
   3   1.0000      -0.384894       -10.4735
   4   0.0000      -0.322965        -8.7883
   5   0.0000       0.075643         2.0584
   6   0.0000       0.094851         2.5810
   7   0.0000       0.094851         2.5810
   8   0.0000       0.102975         2.8021

MULLIKEN ATOMIC CHARGES AND SPIN POPULATIONS
--------------------------------------------
   0 F :   -0.000000    1.000000
Sum of atomic charges         :   -0.0000000

LOEWDIN ATOMIC CHARGES AND SPIN POPULATIONS
-------------------------------------------
   0 F :    0.000000    1.000000

Dispersion correction            0.000000000
FINAL SINGLE POINT ENERGY       -99.774222456989

DIPOLE MOMENT
-------------
                                X             Y             Z
Electronic contribution:      0.00000       0.00000       0.00000
Nuclear contribution   :      0.00000       0.00000       0.00000
                        -----------------------------------------
Total Dipole Moment    :      0.00000       0.00000       0.00000
                        -----------------------------------------
Magnitude (a.u.)       :      0.00000
Magnitude (Debye)      :      0.00000

Rotational constants in cm-1:     0.000000     0.000000     0.000000
Rotational constants in MHz :     0.000000     0.000000     0.000000

                             ****ORCA TERMINATED NORMALLY****
TOTAL RUN TIME: 0 days 0 hours 0 minutes 2 seconds 136 msec
