                         Program Version 4.2.0 -  RELEASE  -
|  1> #
|  2> # TMD16_VO TPSS-D3BJ/Def2-TZVPPD
|  3> #
|  4> ! tpss d3bj def2-tzvppd def2/j grid4 nofinalgrid
|  5>
|  6> *xyz 0 4
|  7> V        0.000000    0.000000    0.412903
|  8> O        0.000000    0.000000   -1.187097
|  9> *
| 10>
| 11> %maxcore 5000
| 12>
| 13> %pal
| 14> nprocs = 24
| 15> end
| 16>
| 17>
| 18>                          ****END OF INPUT****

CARTESIAN COORDINATES (ANGSTROEM)
---------------------------------
  V      0.000000    0.000000    0.412903
  O      0.000000    0.000000   -1.187097

 Total Charge           Charge          ....    0
 Multiplicity           Mult            ....    4
 Number of Electrons    NEL             ....   31
 Basis Dimension        Dim             ....  107

ORBITAL ENERGIES
----------------
                 SPIN UP ORBITALS
  NO   OCC          E(Eh)            E(eV)
   0   1.0000    -196.127131     -5336.8905
   1   1.0000     -21.900477      -595.9423
   2   1.0000     -18.874523      -513.6019
   3   1.0000     -18.424441      -501.3545
   4   1.0000     -18.413302      -501.0514
   5   1.0000     -18.413302      -501.0514
   6   1.0000      -2.529604       -68.8340
   7   1.0000      -1.605125       -43.6777
   8   1.0000      -1.583282       -43.0833
   9   1.0000      -1.583282       -43.0833
  10   1.0000      -0.808156       -21.9911
  11   1.0000      -0.303392        -8.2557
  12   1.0000      -0.289798        -7.8858
  13   1.0000      -0.289798        -7.8858
  14   1.0000      -0.168948        -4.5973
  15   1.0000      -0.163633        -4.4527
  16   1.0000      -0.163633        -4.4527
  17   0.0000      -0.113064        -3.0766
  18   0.0000      -0.113064        -3.0766
  19   0.0000      -0.083810        -2.2806
  20   0.0000      -0.021992        -0.5984
  21   0.0000      -0.021992        -0.5984

                 SPIN DOWN ORBITALS
  NO   OCC          E(Eh)            E(eV)
   0   1.0000    -196.126406     -5336.8708
   1   1.0000     -21.874186      -595.2269
   2   1.0000     -18.882309      -513.8137
   3   1.0000     -18.412969      -501.0423
   4   1.0000     -18.387138      -500.3395
   5   1.0000     -18.387138      -500.3395
   6   1.0000      -2.449658       -66.6586
   7   1.0000      -1.560706       -42.4690
   8   1.0000      -1.482312       -40.3358
   9   1.0000      -1.482312       -40.3358
  10   1.0000      -0.821374       -22.3507
  11   1.0000      -0.296467        -8.0673
  12   1.0000      -0.291537        -7.9331
  13   1.0000      -0.291537        -7.9331
  14   0.0000      -0.102498        -2.7891
  15   0.0000      -0.066023        -1.7966
  16   0.0000      -0.066023        -1.7966
  17   0.0000      -0.056867        -1.5474
  18   0.0000      -0.056822        -1.5462

MULLIKEN ATOMIC CHARGES AND SPIN POPULATIONS
--------------------------------------------
   0 V :    0.636467    3.221636
   1 O :   -0.636467   -0.221636
Sum of atomic charges         :   -0.0000000

LOEWDIN ATOMIC CHARGES AND SPIN POPULATIONS
-------------------------------------------
   0 V :    0.367050    3.053218
   1 O :   -0.367050   -0.053218

  Mayer bond orders larger than 0.100000
B(  0-V ,  1-O ) :   2.3720

Dispersion correction           -0.000901215
FINAL SINGLE POINT ENERGY     -1019.294200141249

DIPOLE MOMENT
-------------
                                X             Y             Z
Electronic contribution:      0.00000      -0.00000       3.19781
Nuclear contribution   :      0.00000       0.00000      -1.78611
                        -----------------------------------------
Total Dipole Moment    :      0.00000      -0.00000       1.41170
                        -----------------------------------------
Magnitude (a.u.)       :      1.41170
Magnitude (Debye)      :      3.58826

Rotational constants in cm-1:     0.000000     0.540859     0.540859
Rotational constants in MHz :     0.000000 16214.556702 16214.556702

                             ****ORCA TERMINATED NORMALLY****
TOTAL RUN TIME: 0 days 0 hours 0 minutes 3 seconds 837 msec
