                         Program Version 4.2.0 -  RELEASE  -
|  1> #
|  2> # TMD18_MnBr TPSS-D3BJ/Def2-TZVPPD
|  3> #
|  4> ! tpss d3bj def2-tzvppd def2/j grid4 nofinalgrid
|  5>
|  6> *xyz 0 7
|  7> Mn       0.000000    0.000000   -1.400000
|  8> Br       0.000000    0.000000    1.000000
|  9> *
| 10>
| 11> %maxcore 5000
| 12>
| 13> %pal
| 14> nprocs = 24
| 15> end
| 16>
| 17>
| 18>                          ****END OF INPUT****

CARTESIAN COORDINATES (ANGSTROEM)
---------------------------------
  Mn     0.000000    0.000000   -1.400000
  Br     0.000000    0.000000    1.000000

 Total Charge           Charge          ....    0
 Multiplicity           Mult            ....    7
 Number of Electrons    NEL             ....   60
 Basis Dimension        Dim             ....  124

ORBITAL ENERGIES
----------------
                 SPIN UP ORBITALS
  NO   OCC          E(Eh)            E(eV)
   0   1.0000    -481.703796    -13107.8267
   1   1.0000    -234.747166     -6387.7951
   2   1.0000     -61.920810     -1684.9509
   3   1.0000     -55.753119     -1517.1195
   4   1.0000     -55.752320     -1517.0978
   5   1.0000     -55.752320     -1517.0978
   6   1.0000     -27.043288      -735.8853
   7   1.0000     -23.130745      -629.4196
   8   1.0000     -23.130745      -629.4196
   9   1.0000     -23.127944      -629.3434
  10   1.0000      -8.451408      -229.9745
  11   1.0000      -6.290071      -171.1615
  12   1.0000      -6.288106      -171.1081
  13   1.0000      -6.288106      -171.1081
  14   1.0000      -3.197057       -86.9964
  15   1.0000      -2.458217       -66.8915
  16   1.0000      -2.457553       -66.8734
  17   1.0000      -2.457553       -66.8734
  18   1.0000      -2.455901       -66.8285
  19   1.0000      -2.455857       -66.8273
  20   1.0000      -2.083283       -56.6890
  21   1.0000      -2.083283       -56.6890
  22   1.0000      -2.074051       -56.4378
  23   1.0000      -0.687536       -18.7088
  24   1.0000      -0.343199        -9.3389
  25   1.0000      -0.326667        -8.8891
  26   1.0000      -0.326667        -8.8891
  27   1.0000      -0.325618        -8.8605
  28   1.0000      -0.325617        -8.8605
  29   1.0000      -0.281523        -7.6606
  30   1.0000      -0.251533        -6.8446
  31   1.0000      -0.251533        -6.8446
  32   1.0000      -0.179417        -4.8822
  33   0.0000      -0.063872        -1.7381
  34   0.0000      -0.063872        -1.7381
  35   0.0000      -0.008124        -0.2211
  36   0.0000       0.033513         0.9119
  37   0.0000       0.045163         1.2289

                 SPIN DOWN ORBITALS
  NO   OCC          E(Eh)            E(eV)
   0   1.0000    -481.703307    -13107.8134
   1   1.0000    -234.745366     -6387.7462
   2   1.0000     -61.920636     -1684.9462
   3   1.0000     -55.752611     -1517.1057
   4   1.0000     -55.751969     -1517.0882
   5   1.0000     -55.751969     -1517.0882
   6   1.0000     -26.973328      -733.9816
   7   1.0000     -23.073688      -627.8670
   8   1.0000     -23.073688      -627.8670
   9   1.0000     -23.072165      -627.8255
  10   1.0000      -8.450759      -229.9569
  11   1.0000      -6.289219      -171.1383
  12   1.0000      -6.287431      -171.0897
  13   1.0000      -6.287431      -171.0897
  14   1.0000      -3.007006       -81.8248
  15   1.0000      -2.457167       -66.8629
  16   1.0000      -2.456554       -66.8462
  17   1.0000      -2.456554       -66.8462
  18   1.0000      -2.455047       -66.8052
  19   1.0000      -2.455002       -66.8040
  20   1.0000      -1.891687       -51.4754
  21   1.0000      -1.891687       -51.4754
  22   1.0000      -1.885982       -51.3202
  23   1.0000      -0.680735       -18.5237
  24   1.0000      -0.300611        -8.1800
  25   1.0000      -0.259218        -7.0537
  26   1.0000      -0.259218        -7.0537
  27   0.0000      -0.150187        -4.0868
  28   0.0000      -0.150185        -4.0867
  29   0.0000      -0.149033        -4.0554
  30   0.0000      -0.141951        -3.8627
  31   0.0000      -0.141951        -3.8627

MULLIKEN ATOMIC CHARGES AND SPIN POPULATIONS
--------------------------------------------
   0 Mn:    0.282198    5.932882
   1 Br:   -0.282198    0.067118
Sum of atomic charges         :   -0.0000000

LOEWDIN ATOMIC CHARGES AND SPIN POPULATIONS
-------------------------------------------
   0 Mn:    0.183030    5.653674
   1 Br:   -0.183030    0.346326

  Mayer bond orders larger than 0.100000
B(  0-Mn,  1-Br) :   0.8155

Dispersion correction           -0.001704346
FINAL SINGLE POINT ENERGY     -3725.144775681159

DIPOLE MOMENT
-------------
                                X             Y             Z
Electronic contribution:     -0.00000      -0.00000       1.52400
Nuclear contribution   :      0.00000       0.00000      -2.50917
                        -----------------------------------------
Total Dipole Moment    :     -0.00000      -0.00000      -0.98517
                        -----------------------------------------
Magnitude (a.u.)       :      0.98517
Magnitude (Debye)      :      2.50411

Rotational constants in cm-1:     0.000000     0.089900     0.089900
Rotational constants in MHz :     0.000000  2695.122005  2695.122005

                             ****ORCA TERMINATED NORMALLY****
TOTAL RUN TIME: 0 days 0 hours 0 minutes 3 seconds 450 msec
