                         Program Version 4.2.0 -  RELEASE  -
|  1> #
|  2> # TMD12_Co TPSS-D3BJ/Def2-TZVPPD
|  3> #
|  4> ! tpss d3bj def2-tzvppd def2/j grid4 nofinalgrid
|  5>
|  6> *xyz 0 4
|  7> Co       0.000000    0.000000    0.000000
|  8> *
|  9>
| 10> %maxcore 5000
| 11>
| 12> %pal
| 13> nprocs = 24
| 14> end
| 15>
| 16>
| 17>                          ****END OF INPUT****

CARTESIAN COORDINATES (ANGSTROEM)
---------------------------------
  Co     0.000000    0.000000    0.000000

 Total Charge           Charge          ....    0
 Multiplicity           Mult            ....    4
 Number of Electrons    NEL             ....   27
 Basis Dimension        Dim             ....   67

ORBITAL ENERGIES
----------------
                 SPIN UP ORBITALS
  NO   OCC          E(Eh)            E(eV)
   0   1.0000    -276.608144     -7526.8902
   1   1.0000     -32.380843      -881.1275
   2   1.0000     -28.037468      -762.9383
   3   1.0000     -28.037431      -762.9373
   4   1.0000     -28.037373      -762.9357
   5   1.0000      -3.554835       -96.7320
   6   1.0000      -2.259651       -61.4882
   7   1.0000      -2.259605       -61.4870
   8   1.0000      -2.259543       -61.4853
   9   1.0000      -0.204512        -5.5651
  10   1.0000      -0.204510        -5.5650
  11   1.0000      -0.170801        -4.6477
  12   1.0000      -0.165457        -4.5023
  13   1.0000      -0.165433        -4.5017
  14   1.0000      -0.165420        -4.5013
  15   0.0000      -0.033309        -0.9064
  16   0.0000      -0.033212        -0.9037
  17   0.0000      -0.033155        -0.9022
  18   0.0000       0.103967         2.8291
  19   0.0000       0.104074         2.8320

                 SPIN DOWN ORBITALS
  NO   OCC          E(Eh)            E(eV)
   0   1.0000    -276.606784     -7526.8532
   1   1.0000     -32.349550      -880.2760
   2   1.0000     -28.011859      -762.2414
   3   1.0000     -28.011806      -762.2400
   4   1.0000     -28.011716      -762.2376
   5   1.0000      -3.472521       -94.4921
   6   1.0000      -2.176532       -59.2264
   7   1.0000      -2.176445       -59.2241
   8   1.0000      -2.176396       -59.2227
   9   1.0000      -0.127340        -3.4651
  10   1.0000      -0.127297        -3.4639
  11   1.0000      -0.127180        -3.4607
  12   0.0000      -0.117829        -3.2063
  13   0.0000      -0.061430        -1.6716
  14   0.0000      -0.061396        -1.6707
  15   0.0000      -0.000548        -0.0149
  16   0.0000      -0.000331        -0.0090

MULLIKEN ATOMIC CHARGES AND SPIN POPULATIONS
--------------------------------------------
   0 Co:    0.000000    3.000000
Sum of atomic charges         :    0.0000000

LOEWDIN ATOMIC CHARGES AND SPIN POPULATIONS
-------------------------------------------
   0 Co:   -0.000000    3.000000

Dispersion correction            0.000000000
FINAL SINGLE POINT ENERGY     -1382.767087475102

DIPOLE MOMENT
-------------
                                X             Y             Z
Electronic contribution:      0.00000      -0.00000       0.00000
Nuclear contribution   :      0.00000       0.00000       0.00000
                        -----------------------------------------
Total Dipole Moment    :      0.00000      -0.00000       0.00000
                        -----------------------------------------
Magnitude (a.u.)       :      0.00000
Magnitude (Debye)      :      0.00000

Rotational constants in cm-1:     0.000000     0.000000     0.000000
Rotational constants in MHz :     0.000000     0.000000     0.000000

                             ****ORCA TERMINATED NORMALLY****
TOTAL RUN TIME: 0 days 0 hours 0 minutes 2 seconds 993 msec
