                         Program Version 4.2.0 -  RELEASE  -
|  1> #
|  2> # TMD14_Zn TPSS-D3BJ/Def2-TZVPPD
|  3> #
|  4> ! tpss d3bj def2-tzvppd def2/j grid4 nofinalgrid
|  5>
|  6> *xyz 0 1
|  7> Zn       0.000000    0.000000    0.000000
|  8> *
|  9>
| 10> %maxcore 5000
| 11>
| 12> %pal
| 13> nprocs = 24
| 14> end
| 15>
| 16>
| 17>                          ****END OF INPUT****

CARTESIAN COORDINATES (ANGSTROEM)
---------------------------------
  Zn     0.000000    0.000000    0.000000

 Total Charge           Charge          ....    0
 Multiplicity           Mult            ....    1
 Number of Electrons    NEL             ....   30
 Basis Dimension        Dim             ....   67

ORBITAL ENERGIES
----------------

  NO   OCC          E(Eh)            E(eV)
   0   2.0000    -346.301405     -9423.3403
   1   2.0000     -41.755976     -1136.2379
   2   2.0000     -36.749006      -999.9913
   3   2.0000     -36.749006      -999.9913
   4   2.0000     -36.749006      -999.9913
   5   2.0000      -4.646772      -126.4451
   6   2.0000      -3.054270       -83.1109
   7   2.0000      -3.054270       -83.1109
   8   2.0000      -3.054270       -83.1109
   9   2.0000      -0.387209       -10.5365
  10   2.0000      -0.387209       -10.5365
  11   2.0000      -0.387209       -10.5365
  12   2.0000      -0.387209       -10.5365
  13   2.0000      -0.387209       -10.5365
  14   2.0000      -0.213334        -5.8051
  15   0.0000      -0.037940        -1.0324
  16   0.0000      -0.037940        -1.0324
  17   0.0000      -0.037940        -1.0324
  18   0.0000       0.049030         1.3342
  19   0.0000       0.049030         1.3342

MULLIKEN ATOMIC CHARGES
-----------------------
   0 Zn:   -0.000000
Sum of atomic charges:   -0.0000000

LOEWDIN ATOMIC CHARGES
----------------------
   0 Zn:   -0.000000

Dispersion correction            0.000000000
FINAL SINGLE POINT ENERGY     -1779.403863764333

DIPOLE MOMENT
-------------
                                X             Y             Z
Electronic contribution:     -0.00000       0.00000      -0.00000
Nuclear contribution   :      0.00000       0.00000       0.00000
                        -----------------------------------------
Total Dipole Moment    :     -0.00000       0.00000      -0.00000
                        -----------------------------------------
Magnitude (a.u.)       :      0.00000
Magnitude (Debye)      :      0.00000

Rotational constants in cm-1:     0.000000     0.000000     0.000000
Rotational constants in MHz :     0.000000     0.000000     0.000000

                             ****ORCA TERMINATED NORMALLY****
TOTAL RUN TIME: 0 days 0 hours 0 minutes 2 seconds 309 msec
