                         Program Version 4.2.0 -  RELEASE  -
|  1> #
|  2> # TMD11_Fe TPSS-D3BJ/Def2-TZVPPD
|  3> #
|  4> ! tpss d3bj def2-tzvppd def2/j grid4 nofinalgrid
|  5>
|  6> *xyz 0 5
|  7> Fe       0.000000    0.000000    0.000000
|  8> *
|  9>
| 10> %maxcore 5000
| 11>
| 12> %pal
| 13> nprocs = 24
| 14> end
| 15>
| 16>
| 17>                          ****END OF INPUT****

CARTESIAN COORDINATES (ANGSTROEM)
---------------------------------
  Fe     0.000000    0.000000    0.000000

 Total Charge           Charge          ....    0
 Multiplicity           Mult            ....    5
 Number of Electrons    NEL             ....   26
 Basis Dimension        Dim             ....   67

ORBITAL ENERGIES
----------------
                 SPIN UP ORBITALS
  NO   OCC          E(Eh)            E(eV)
   0   1.0000    -255.216693     -6944.7993
   1   1.0000     -29.620189      -806.0063
   2   1.0000     -25.496134      -693.7851
   3   1.0000     -25.490243      -693.6248
   4   1.0000     -25.490159      -693.6225
   5   1.0000      -3.338404       -90.8426
   6   1.0000      -2.146043       -58.3968
   7   1.0000      -2.128059       -57.9074
   8   1.0000      -2.127905       -57.9032
   9   1.0000      -0.236013        -6.4222
  10   1.0000      -0.235995        -6.4217
  11   1.0000      -0.226252        -6.1566
  12   1.0000      -0.215492        -5.8638
  13   1.0000      -0.188290        -5.1236
  14   1.0000      -0.176344        -4.7986
  15   0.0000      -0.046857        -1.2750
  16   0.0000      -0.037080        -1.0090
  17   0.0000      -0.037062        -1.0085
  18   0.0000       0.084965         2.3120
  19   0.0000       0.092695         2.5224

                 SPIN DOWN ORBITALS
  NO   OCC          E(Eh)            E(eV)
   0   1.0000    -255.215440     -6944.7652
   1   1.0000     -29.569194      -804.6187
   2   1.0000     -25.451269      -692.5642
   3   1.0000     -25.450707      -692.5490
   4   1.0000     -25.450651      -692.5474
   5   1.0000      -3.205447       -87.2247
   6   1.0000      -2.007662       -54.6313
   7   1.0000      -1.996404       -54.3249
   8   1.0000      -1.996378       -54.3242
   9   1.0000      -0.138603        -3.7716
  10   1.0000      -0.137611        -3.7446
  11   0.0000      -0.122098        -3.3224
  12   0.0000      -0.077399        -2.1061
  13   0.0000      -0.077310        -2.1037
  14   0.0000      -0.065979        -1.7954
  15   0.0000      -0.016998        -0.4625

MULLIKEN ATOMIC CHARGES AND SPIN POPULATIONS
--------------------------------------------
   0 Fe:   -0.000000    4.000000
Sum of atomic charges         :   -0.0000000

LOEWDIN ATOMIC CHARGES AND SPIN POPULATIONS
-------------------------------------------
   0 Fe:   -0.000000    4.000000

Dispersion correction            0.000000000
FINAL SINGLE POINT ENERGY     -1263.700154095134

DIPOLE MOMENT
-------------
                                X             Y             Z
Electronic contribution:     -0.00000      -0.00000       0.00000
Nuclear contribution   :      0.00000       0.00000       0.00000
                        -----------------------------------------
Total Dipole Moment    :     -0.00000      -0.00000       0.00000
                        -----------------------------------------
Magnitude (a.u.)       :      0.00000
Magnitude (Debye)      :      0.00000

Rotational constants in cm-1:     0.000000     0.000000     0.000000
Rotational constants in MHz :     0.000000     0.000000     0.000000

                             ****ORCA TERMINATED NORMALLY****
TOTAL RUN TIME: 0 days 0 hours 0 minutes 11 seconds 767 msec
