                         Program Version 4.2.0 -  RELEASE  -
|  1> #
|  2> # TMD13_Cu TPSS-D3BJ/Def2-TZVPPD
|  3> #
|  4> ! tpss d3bj def2-tzvppd def2/j grid4 nofinalgrid
|  5>
|  6> *xyz 0 2
|  7> Cu       0.000000    0.000000    0.000000
|  8> *
|  9>
| 10> %maxcore 5000
| 11>
| 12> %pal
| 13> nprocs = 24
| 14> end
| 15>
| 16>
| 17>                          ****END OF INPUT****

CARTESIAN COORDINATES (ANGSTROEM)
---------------------------------
  Cu     0.000000    0.000000    0.000000

 Total Charge           Charge          ....    0
 Multiplicity           Mult            ....    2
 Number of Electrons    NEL             ....   29
 Basis Dimension        Dim             ....   67

ORBITAL ENERGIES
----------------
                 SPIN UP ORBITALS
  NO   OCC          E(Eh)            E(eV)
   0   1.0000    -322.075927     -8764.1315
   1   1.0000     -38.361490     -1043.8692
   2   1.0000     -33.580917      -913.7832
   3   1.0000     -33.580917      -913.7832
   4   1.0000     -33.580917      -913.7832
   5   1.0000      -4.121344      -112.1475
   6   1.0000      -2.633871       -71.6713
   7   1.0000      -2.633871       -71.6713
   8   1.0000      -2.633871       -71.6713
   9   1.0000      -0.189324        -5.1518
  10   1.0000      -0.189324        -5.1518
  11   1.0000      -0.189324        -5.1518
  12   1.0000      -0.189324        -5.1518
  13   1.0000      -0.189324        -5.1518
  14   1.0000      -0.177698        -4.8354
  15   0.0000      -0.031043        -0.8447
  16   0.0000      -0.031043        -0.8447
  17   0.0000      -0.031043        -0.8447
  18   0.0000       0.074598         2.0299
  19   0.0000       0.107450         2.9239

                 SPIN DOWN ORBITALS
  NO   OCC          E(Eh)            E(eV)
   0   1.0000    -322.074989     -8764.1060
   1   1.0000     -38.363055     -1043.9118
   2   1.0000     -33.582029      -913.8135
   3   1.0000     -33.582029      -913.8135
   4   1.0000     -33.582029      -913.8135
   5   1.0000      -4.124003      -112.2198
   6   1.0000      -2.635953       -71.7279
   7   1.0000      -2.635953       -71.7279
   8   1.0000      -2.635953       -71.7279
   9   1.0000      -0.183386        -4.9902
  10   1.0000      -0.183386        -4.9902
  11   1.0000      -0.183386        -4.9902
  12   1.0000      -0.183386        -4.9902
  13   1.0000      -0.183386        -4.9902
  14   0.0000      -0.132721        -3.6115
  15   0.0000      -0.000596        -0.0162
  16   0.0000      -0.000596        -0.0162
  17   0.0000      -0.000596        -0.0162
  18   0.0000       0.100302         2.7293

MULLIKEN ATOMIC CHARGES AND SPIN POPULATIONS
--------------------------------------------
   0 Cu:   -0.000000    1.000000
Sum of atomic charges         :   -0.0000000

LOEWDIN ATOMIC CHARGES AND SPIN POPULATIONS
-------------------------------------------
   0 Cu:   -0.000000    1.000000

Dispersion correction            0.000000000
FINAL SINGLE POINT ENERGY     -1640.519255373751

DIPOLE MOMENT
-------------
                                X             Y             Z
Electronic contribution:     -0.00000      -0.00000       0.00000
Nuclear contribution   :      0.00000       0.00000       0.00000
                        -----------------------------------------
Total Dipole Moment    :     -0.00000      -0.00000       0.00000
                        -----------------------------------------
Magnitude (a.u.)       :      0.00000
Magnitude (Debye)      :      0.00000

Rotational constants in cm-1:     0.000000     0.000000     0.000000
Rotational constants in MHz :     0.000000     0.000000     0.000000

                             ****ORCA TERMINATED NORMALLY****
TOTAL RUN TIME: 0 days 0 hours 0 minutes 2 seconds 512 msec
