                         Program Version 4.2.0 -  RELEASE  -
|  1> #
|  2> # TMD15_TiBr TPSS-D3BJ/Def2-TZVPPD
|  3> #
|  4> ! tpss d3bj def2-tzvppd def2/j grid4 nofinalgrid
|  5>
|  6> *xyz 0 4
|  7> Ti       0.000000    0.000000   -1.485965
|  8> Br       0.000000    0.000000    0.934035
|  9> *
| 10>
| 11> %maxcore 5000
| 12>
| 13> %pal
| 14> nprocs = 24
| 15> end
| 16>
| 17>
| 18>                          ****END OF INPUT****

CARTESIAN COORDINATES (ANGSTROEM)
---------------------------------
  Ti     0.000000    0.000000   -1.485965
  Br     0.000000    0.000000    0.934035

 Total Charge           Charge          ....    0
 Multiplicity           Mult            ....    4
 Number of Electrons    NEL             ....   57
 Basis Dimension        Dim             ....  124

ORBITAL ENERGIES
----------------
                 SPIN UP ORBITALS
  NO   OCC          E(Eh)            E(eV)
   0   1.0000    -481.691730    -13107.4983
   1   1.0000    -178.123988     -4847.0001
   2   1.0000     -61.909428     -1684.6412
   3   1.0000     -55.741343     -1516.7990
   4   1.0000     -55.740947     -1516.7883
   5   1.0000     -55.740947     -1516.7883
   6   1.0000     -19.512957      -530.9746
   7   1.0000     -16.249158      -442.1621
   8   1.0000     -16.237053      -441.8327
   9   1.0000     -16.237053      -441.8327
  10   1.0000      -8.439648      -229.6545
  11   1.0000      -6.277775      -170.8269
  12   1.0000      -6.276527      -170.7930
  13   1.0000      -6.276527      -170.7930
  14   1.0000      -2.445950       -66.5577
  15   1.0000      -2.445415       -66.5431
  16   1.0000      -2.445415       -66.5431
  17   1.0000      -2.444300       -66.5128
  18   1.0000      -2.444257       -66.5116
  19   1.0000      -2.240785       -60.9749
  20   1.0000      -1.396770       -38.0081
  21   1.0000      -1.376156       -37.4471
  22   1.0000      -1.376156       -37.4471
  23   1.0000      -0.669605       -18.2209
  24   1.0000      -0.282584        -7.6895
  25   1.0000      -0.249310        -6.7841
  26   1.0000      -0.249310        -6.7841
  27   1.0000      -0.159009        -4.3268
  28   1.0000      -0.120238        -3.2718
  29   1.0000      -0.120237        -3.2718
  30   0.0000      -0.105254        -2.8641
  31   0.0000      -0.105254        -2.8641
  32   0.0000      -0.105075        -2.8592
  33   0.0000      -0.041370        -1.1257
  34   0.0000      -0.041370        -1.1257

                 SPIN DOWN ORBITALS
  NO   OCC          E(Eh)            E(eV)
   0   1.0000    -481.691950    -13107.5043
   1   1.0000    -178.123537     -4846.9879
   2   1.0000     -61.909492     -1684.6429
   3   1.0000     -55.741565     -1516.8051
   4   1.0000     -55.741101     -1516.7925
   5   1.0000     -55.741101     -1516.7925
   6   1.0000     -19.491932      -530.4024
   7   1.0000     -16.239496      -441.8991
   8   1.0000     -16.216387      -441.2703
   9   1.0000     -16.216387      -441.2703
  10   1.0000      -8.439924      -229.6620
  11   1.0000      -6.278154      -170.8373
  12   1.0000      -6.276807      -170.8006
  13   1.0000      -6.276807      -170.8006
  14   1.0000      -2.446391       -66.5697
  15   1.0000      -2.445843       -66.5548
  16   1.0000      -2.445843       -66.5548
  17   1.0000      -2.444642       -66.5221
  18   1.0000      -2.444599       -66.5209
  19   1.0000      -2.170172       -59.0534
  20   1.0000      -1.352605       -36.8063
  21   1.0000      -1.288472       -35.0611
  22   1.0000      -1.288472       -35.0611
  23   1.0000      -0.671755       -18.2794
  24   1.0000      -0.278811        -7.5868
  25   1.0000      -0.249055        -6.7771
  26   1.0000      -0.249055        -6.7771
  27   0.0000      -0.098090        -2.6692
  28   0.0000      -0.067818        -1.8454
  29   0.0000      -0.067818        -1.8454
  30   0.0000      -0.062191        -1.6923
  31   0.0000      -0.029113        -0.7922

MULLIKEN ATOMIC CHARGES AND SPIN POPULATIONS
--------------------------------------------
   0 Ti:    0.244660    3.085754
   1 Br:   -0.244660   -0.085754
Sum of atomic charges         :   -0.0000000

LOEWDIN ATOMIC CHARGES AND SPIN POPULATIONS
-------------------------------------------
   0 Ti:   -0.006453    2.941893
   1 Br:    0.006453    0.058107

  Mayer bond orders larger than 0.100000
B(  0-Ti,  1-Br) :   1.2610

Dispersion correction           -0.001953121
FINAL SINGLE POINT ENERGY     -3423.541245201074

DIPOLE MOMENT
-------------
                                X             Y             Z
Electronic contribution:      0.00000       0.00000       0.95015
Nuclear contribution   :      0.00000       0.00000      -2.90920
                        -----------------------------------------
Total Dipole Moment    :      0.00000       0.00000      -1.95905
                        -----------------------------------------
Magnitude (a.u.)       :      1.95905
Magnitude (Debye)      :      4.97951

Rotational constants in cm-1:     0.000000     0.096120     0.096120
Rotational constants in MHz :     0.000000  2881.611529  2881.611529

                             ****ORCA TERMINATED NORMALLY****
TOTAL RUN TIME: 0 days 0 hours 0 minutes 3 seconds 422 msec
