                         Program Version 4.2.0 -  RELEASE  -
|  1> #
|  2> # TMD10_Mn TPSS-D3BJ/Def2-TZVPPD
|  3> #
|  4> ! tpss d3bj def2-tzvppd def2/j grid4 nofinalgrid
|  5>
|  6> *xyz 0 6
|  7> Mn       0.000000    0.000000    0.000000
|  8> *
|  9>
| 10> %maxcore 5000
| 11>
| 12> %pal
| 13> nprocs = 24
| 14> end
| 15>
| 16>
| 17>                          ****END OF INPUT****

CARTESIAN COORDINATES (ANGSTROEM)
---------------------------------
  Mn     0.000000    0.000000    0.000000

 Total Charge           Charge          ....    0
 Multiplicity           Mult            ....    6
 Number of Electrons    NEL             ....   25
 Basis Dimension        Dim             ....   67

ORBITAL ENERGIES
----------------
                 SPIN UP ORBITALS
  NO   OCC          E(Eh)            E(eV)
   0   1.0000    -234.734200     -6387.4423
   1   1.0000     -27.034585      -735.6485
   2   1.0000     -23.121125      -629.1578
   3   1.0000     -23.121056      -629.1559
   4   1.0000     -23.119515      -629.1140
   5   1.0000      -3.187793       -86.7443
   6   1.0000      -2.070883       -56.3516
   7   1.0000      -2.070080       -56.3297
   8   1.0000      -2.069292       -56.3083
   9   1.0000      -0.307410        -8.3651
  10   1.0000      -0.307139        -8.3577
  11   1.0000      -0.306670        -8.3449
  12   1.0000      -0.306383        -8.3371
  13   1.0000      -0.305796        -8.3211
  14   1.0000      -0.200130        -5.4458
  15   0.0000      -0.058839        -1.6011
  16   0.0000      -0.056579        -1.5396
  17   0.0000      -0.055057        -1.4982
  18   0.0000       0.070983         1.9315
  19   0.0000       0.072347         1.9687

                 SPIN DOWN ORBITALS
  NO   OCC          E(Eh)            E(eV)
   0   1.0000    -234.733283     -6387.4174
   1   1.0000     -26.962654      -733.6911
   2   1.0000     -23.063368      -627.5861
   3   1.0000     -23.063003      -627.5762
   4   1.0000     -23.061547      -627.5366
   5   1.0000      -2.993198       -81.4491
   6   1.0000      -1.876332       -51.0576
   7   1.0000      -1.875172       -51.0260
   8   1.0000      -1.874320       -51.0028
   9   1.0000      -0.159739        -4.3467
  10   0.0000      -0.134401        -3.6572
  11   0.0000      -0.134184        -3.6513
  12   0.0000      -0.133091        -3.6216
  13   0.0000      -0.132533        -3.6064
  14   0.0000      -0.132259        -3.5990

MULLIKEN ATOMIC CHARGES AND SPIN POPULATIONS
--------------------------------------------
   0 Mn:    0.000000    5.000000
Sum of atomic charges         :    0.0000000

LOEWDIN ATOMIC CHARGES AND SPIN POPULATIONS
-------------------------------------------
   0 Mn:   -0.000000    5.000000

Dispersion correction            0.000000000
FINAL SINGLE POINT ENERGY     -1150.992131779181

DIPOLE MOMENT
-------------
                                X             Y             Z
Electronic contribution:      0.00000       0.00000       0.00000
Nuclear contribution   :      0.00000       0.00000       0.00000
                        -----------------------------------------
Total Dipole Moment    :      0.00000       0.00000       0.00000
                        -----------------------------------------
Magnitude (a.u.)       :      0.00000
Magnitude (Debye)      :      0.00000

Rotational constants in cm-1:     0.000000     0.000000     0.000000
Rotational constants in MHz :     0.000000     0.000000     0.000000

                             ****ORCA TERMINATED NORMALLY****
TOTAL RUN TIME: 0 days 0 hours 0 minutes 3 seconds 927 msec
