                         Program Version 4.2.0 -  RELEASE  -
|  1> #
|  2> # TMD19_FeCl TPSS-D3BJ/Def2-TZVPPD
|  3> #
|  4> ! tpss d3bj def2-tzvppd def2/j grid4 nofinalgrid
|  5>
|  6> *xyz 0 6
|  7> Fe       0.000000    0.000000    0.869767
|  8> Cl       0.000000    0.000000   -1.330233
|  9> *
| 10>
| 11> %maxcore 5000
| 12>
| 13> %pal
| 14> nprocs = 24
| 15> end
| 16>
| 17>
| 18>                          ****END OF INPUT****

CARTESIAN COORDINATES (ANGSTROEM)
---------------------------------
  Fe     0.000000    0.000000    0.869767
  Cl     0.000000    0.000000   -1.330233

 Total Charge           Charge          ....    0
 Multiplicity           Mult            ....    6
 Number of Electrons    NEL             ....   43
 Basis Dimension        Dim             ....  118

ORBITAL ENERGIES
----------------
                 SPIN UP ORBITALS
  NO   OCC          E(Eh)            E(eV)
   0   1.0000    -255.320842     -6947.6333
   1   1.0000    -100.974612     -2747.6589
   2   1.0000     -29.741858      -809.3171
   3   1.0000     -25.630576      -697.4434
   4   1.0000     -25.603563      -696.7084
   5   1.0000     -25.603563      -696.7084
   6   1.0000      -9.224611      -251.0144
   7   1.0000      -6.999141      -190.4563
   8   1.0000      -6.996709      -190.3901
   9   1.0000      -6.996709      -190.3901
  10   1.0000      -3.461298       -94.1867
  11   1.0000      -2.288652       -62.2774
  12   1.0000      -2.237196       -60.8772
  13   1.0000      -2.237196       -60.8772
  14   1.0000      -0.741284       -20.1714
  15   1.0000      -0.377268       -10.2660
  16   1.0000      -0.351620        -9.5681
  17   1.0000      -0.351620        -9.5681
  18   1.0000      -0.326956        -8.8969
  19   1.0000      -0.301185        -8.1956
  20   1.0000      -0.287017        -7.8101
  21   1.0000      -0.278370        -7.5748
  22   1.0000      -0.278370        -7.5748
  23   1.0000      -0.180946        -4.9238
  24   0.0000      -0.054080        -1.4716
  25   0.0000      -0.054080        -1.4716
  26   0.0000      -0.002342        -0.0637
  27   0.0000       0.042290         1.1508
  28   0.0000       0.057716         1.5705

                 SPIN DOWN ORBITALS
  NO   OCC          E(Eh)            E(eV)
   0   1.0000    -255.319009     -6947.5835
   1   1.0000    -100.972635     -2747.6051
   2   1.0000     -29.680884      -807.6579
   3   1.0000     -25.573143      -695.8806
   4   1.0000     -25.558090      -695.4710
   5   1.0000     -25.558090      -695.4710
   6   1.0000      -9.223099      -250.9733
   7   1.0000      -6.996478      -190.3839
   8   1.0000      -6.994567      -190.3318
   9   1.0000      -6.994567      -190.3318
  10   1.0000      -3.305391       -89.9443
  11   1.0000      -2.103722       -57.2452
  12   1.0000      -2.095622       -57.0248
  13   1.0000      -2.095622       -57.0248
  14   1.0000      -0.730252       -19.8712
  15   1.0000      -0.333822        -9.0837
  16   1.0000      -0.288381        -7.8473
  17   1.0000      -0.288381        -7.8473
  18   1.0000      -0.220268        -5.9938
  19   0.0000      -0.184451        -5.0192
  20   0.0000      -0.172572        -4.6959
  21   0.0000      -0.172572        -4.6959
  22   0.0000      -0.141152        -3.8409
  23   0.0000      -0.115517        -3.1434

MULLIKEN ATOMIC CHARGES AND SPIN POPULATIONS
--------------------------------------------
   0 Fe:    0.326326    4.812715
   1 Cl:   -0.326326    0.187285
Sum of atomic charges         :   -0.0000000

LOEWDIN ATOMIC CHARGES AND SPIN POPULATIONS
-------------------------------------------
   0 Fe:    0.158373    4.582609
   1 Cl:   -0.158373    0.417391

  Mayer bond orders larger than 0.100000
B(  0-Fe,  1-Cl) :   0.8934

Dispersion correction           -0.001435497
FINAL SINGLE POINT ENERGY     -1724.006395935299

DIPOLE MOMENT
-------------
                                X             Y             Z
Electronic contribution:      0.00000       0.00000       1.96076
Nuclear contribution   :      0.00000       0.00000      -1.26002
                        -----------------------------------------
Total Dipole Moment    :      0.00000       0.00000       0.70075
                        -----------------------------------------
Magnitude (a.u.)       :      0.70075
Magnitude (Debye)      :      1.78115

Rotational constants in cm-1:     0.000000     0.160606     0.160606
Rotational constants in MHz :     0.000000  4814.831818  4814.831818

                             ****ORCA TERMINATED NORMALLY****
TOTAL RUN TIME: 0 days 0 hours 0 minutes 3 seconds 152 msec
