                         Program Version 4.2.0 -  RELEASE  -
|  1> #
|  2> # TMD17_CrS TPSS-D3BJ/Def2-TZVPPD
|  3> #
|  4> ! tpss d3bj def2-tzvppd def2/j grid4 nofinalgrid
|  5>
|  6> *xyz 0 5
|  7> Cr       0.000000    0.000000    0.836000
|  8> S        0.000000    0.000000   -1.254000
|  9> *
| 10>
| 11> %maxcore 5000
| 12>
| 13> %pal
| 14> nprocs = 24
| 15> end
| 16>
| 17>
| 18>                          ****END OF INPUT****

CARTESIAN COORDINATES (ANGSTROEM)
---------------------------------
  Cr     0.000000    0.000000    0.836000
  S      0.000000    0.000000   -1.254000

 Total Charge           Charge          ....    0
 Multiplicity           Mult            ....    5
 Number of Electrons    NEL             ....   40
 Basis Dimension        Dim             ....  118

ORBITAL ENERGIES
----------------
                 SPIN UP ORBITALS
  NO   OCC          E(Eh)            E(eV)
   0   1.0000    -214.957017     -5849.2778
   1   1.0000     -88.315940     -2403.1989
   2   1.0000     -24.364675      -662.9965
   3   1.0000     -20.670325      -562.4681
   4   1.0000     -20.669224      -562.4382
   5   1.0000     -20.664012      -562.2963
   6   1.0000      -7.697208      -209.4517
   7   1.0000      -5.674564      -154.4127
   8   1.0000      -5.672133      -154.3466
   9   1.0000      -5.671204      -154.3213
  10   1.0000      -2.814859       -76.5962
  11   1.0000      -1.791878       -48.7595
  12   1.0000      -1.791363       -48.7455
  13   1.0000      -1.782378       -48.5010
  14   1.0000      -0.573656       -15.6100
  15   1.0000      -0.265507        -7.2248
  16   1.0000      -0.244158        -6.6439
  17   1.0000      -0.238566        -6.4917
  18   1.0000      -0.208303        -5.6682
  19   1.0000      -0.206148        -5.6096
  20   1.0000      -0.193979        -5.2784
  21   1.0000      -0.166299        -4.5252
  22   0.0000      -0.156063        -4.2467
  23   0.0000      -0.118188        -3.2161
  24   0.0000      -0.036660        -0.9976
  25   0.0000      -0.034465        -0.9378
  26   0.0000       0.011105         0.3022

                 SPIN DOWN ORBITALS
  NO   OCC          E(Eh)            E(eV)
   0   1.0000    -214.956208     -5849.2558
   1   1.0000     -88.319163     -2403.2866
   2   1.0000     -24.317306      -661.7075
   3   1.0000     -20.635783      -561.5282
   4   1.0000     -20.631500      -561.4117
   5   1.0000     -20.621320      -561.1346
   6   1.0000      -7.699893      -209.5247
   7   1.0000      -5.681702      -154.6070
   8   1.0000      -5.675885      -154.4487
   9   1.0000      -5.672300      -154.3511
  10   1.0000      -2.672111       -72.7118
  11   1.0000      -1.661301       -45.2063
  12   1.0000      -1.647416       -44.8285
  13   1.0000      -1.624250       -44.1981
  14   1.0000      -0.592692       -16.1280
  15   1.0000      -0.249784        -6.7970
  16   1.0000      -0.237357        -6.4588
  17   1.0000      -0.213180        -5.8009
  18   0.0000      -0.108798        -2.9606
  19   0.0000      -0.085604        -2.3294
  20   0.0000      -0.070171        -1.9095
  21   0.0000      -0.066333        -1.8050
  22   0.0000      -0.065805        -1.7906

MULLIKEN ATOMIC CHARGES AND SPIN POPULATIONS
--------------------------------------------
   0 Cr:    0.346935    4.680884
   1 S :   -0.346935   -0.680884
Sum of atomic charges         :   -0.0000000

LOEWDIN ATOMIC CHARGES AND SPIN POPULATIONS
-------------------------------------------
   0 Cr:    0.067010    4.345863
   1 S :   -0.067010   -0.345863

  Mayer bond orders larger than 0.100000
B(  0-Cr,  1-S ) :   1.9208

Dispersion correction           -0.001990660
FINAL SINGLE POINT ENERGY     -1442.729779860249

DIPOLE MOMENT
-------------
                                X             Y             Z
Electronic contribution:      0.00000      -0.00000       4.88093
Nuclear contribution   :      0.00000       0.00000      -2.93936
                        -----------------------------------------
Total Dipole Moment    :      0.00000      -0.00000       1.94157
                        -----------------------------------------
Magnitude (a.u.)       :      1.94157
Magnitude (Debye)      :      4.93509

Rotational constants in cm-1:     0.000000     0.194593     0.194593
Rotational constants in MHz :     0.000000  5833.746532  5833.746532

                             ****ORCA TERMINATED NORMALLY****
TOTAL RUN TIME: 0 days 0 hours 0 minutes 5 seconds 32 msec
