                         Program Version 4.2.0 -  RELEASE  -
|  1> #
|  2> # TMD21_CoH TPSS-D3BJ/Def2-TZVPPD
|  3> #
|  4> ! tpss d3bj def2-tzvppd def2/j grid4 nofinalgrid
|  5>
|  6> *xyz 0 3
|  7> Co       0.000000    0.000000    0.053929
|  8> H        0.000000    0.000000   -1.456071
|  9> *
| 10>
| 11> %maxcore 5000
| 12>
| 13> %pal
| 14> nprocs = 24
| 15> end
| 16>
| 17>
| 18>                          ****END OF INPUT****

CARTESIAN COORDINATES (ANGSTROEM)
---------------------------------
  Co     0.000000    0.000000    0.053929
  H      0.000000    0.000000   -1.456071

 Total Charge           Charge          ....    0
 Multiplicity           Mult            ....    3
 Number of Electrons    NEL             ....   28
 Basis Dimension        Dim             ....   84

ORBITAL ENERGIES
----------------
                 SPIN UP ORBITALS
  NO   OCC          E(Eh)            E(eV)
   0   1.0000    -276.616220     -7527.1100
   1   1.0000     -32.391688      -881.4226
   2   1.0000     -28.048641      -763.2423
   3   1.0000     -28.048641      -763.2423
   4   1.0000     -28.047819      -763.2200
   5   1.0000      -3.560133       -96.8761
   6   1.0000      -2.264522       -61.6208
   7   1.0000      -2.264373       -61.6167
   8   1.0000      -2.264373       -61.6167
   9   1.0000      -0.269465        -7.3325
  10   1.0000      -0.207335        -5.6419
  11   1.0000      -0.186754        -5.0818
  12   1.0000      -0.171492        -4.6665
  13   1.0000      -0.171492        -4.6665
  14   1.0000      -0.167822        -4.5667
  15   0.0000      -0.090150        -2.4531
  16   0.0000      -0.027823        -0.7571
  17   0.0000      -0.027823        -0.7571
  18   0.0000       0.060409         1.6438
  19   0.0000       0.066199         1.8014

                 SPIN DOWN ORBITALS
  NO   OCC          E(Eh)            E(eV)
   0   1.0000    -276.615527     -7527.0912
   1   1.0000     -32.363536      -880.6566
   2   1.0000     -28.027962      -762.6796
   3   1.0000     -28.024143      -762.5757
   4   1.0000     -28.024143      -762.5757
   5   1.0000      -3.486735       -94.8789
   6   1.0000      -2.193692       -59.6934
   7   1.0000      -2.189078       -59.5679
   8   1.0000      -2.189078       -59.5679
   9   1.0000      -0.259751        -7.0682
  10   1.0000      -0.141166        -3.8413
  11   1.0000      -0.141166        -3.8413
  12   1.0000      -0.138409        -3.7663
  13   0.0000      -0.104724        -2.8497
  14   0.0000      -0.071878        -1.9559
  15   0.0000      -0.062733        -1.7070
  16   0.0000      -0.009291        -0.2528
  17   0.0000      -0.009291        -0.2528

MULLIKEN ATOMIC CHARGES AND SPIN POPULATIONS
--------------------------------------------
   0 Co:   -0.007295    2.156089
   1 H :    0.007295   -0.156089
Sum of atomic charges         :   -0.0000000

LOEWDIN ATOMIC CHARGES AND SPIN POPULATIONS
-------------------------------------------
   0 Co:    0.231862    2.004814
   1 H :   -0.231862   -0.004814

  Mayer bond orders larger than 0.100000
B(  0-Co,  1-H ) :   0.9590

Dispersion correction           -0.000494074
FINAL SINGLE POINT ENERGY     -1383.368705853017

DIPOLE MOMENT
-------------
                                X             Y             Z
Electronic contribution:     -0.00000      -0.00000       2.54581
Nuclear contribution   :      0.00000       0.00000      -1.50982
                        -----------------------------------------
Total Dipole Moment    :     -0.00000      -0.00000       1.03599
                        -----------------------------------------
Magnitude (a.u.)       :      1.03599
Magnitude (Debye)      :      2.63327

Rotational constants in cm-1:     0.000000     7.460162     7.460162
Rotational constants in MHz :     0.000000 223650.041735 223650.041735

                             ****ORCA TERMINATED NORMALLY****
TOTAL RUN TIME: 0 days 0 hours 0 minutes 3 seconds 226 msec
