                         Program Version 4.2.0 -  RELEASE  -
|  1> #
|  2> # TMD20_FeS TPSS-D3BJ/Def2-TZVPPD
|  3> #
|  4> ! tpss d3bj def2-tzvppd def2/j grid4 nofinalgrid
|  5>
|  6> *xyz 0 5
|  7> Fe       0.000000    0.000000    0.769524
|  8> S        0.000000    0.000000   -1.250476
|  9> *
| 10>
| 11> %maxcore 5000
| 12>
| 13> %pal
| 14> nprocs = 24
| 15> end
| 16>
| 17>
| 18>                          ****END OF INPUT****

CARTESIAN COORDINATES (ANGSTROEM)
---------------------------------
  Fe     0.000000    0.000000    0.769524
  S      0.000000    0.000000   -1.250476

 Total Charge           Charge          ....    0
 Multiplicity           Mult            ....    5
 Number of Electrons    NEL             ....   42
 Basis Dimension        Dim             ....  118

ORBITAL ENERGIES
----------------
                 SPIN UP ORBITALS
  NO   OCC          E(Eh)            E(eV)
   0   1.0000    -255.258751     -6945.9438
   1   1.0000     -88.316799     -2403.2223
   2   1.0000     -29.665094      -807.2282
   3   1.0000     -25.549907      -695.2483
   4   1.0000     -25.530930      -694.7319
   5   1.0000     -25.530930      -694.7319
   6   1.0000      -7.697380      -209.4563
   7   1.0000      -5.674085      -154.3997
   8   1.0000      -5.674085      -154.3997
   9   1.0000      -5.673537      -154.3848
  10   1.0000      -3.378452       -91.9324
  11   1.0000      -2.202388       -59.9300
  12   1.0000      -2.159494       -58.7628
  13   1.0000      -2.159494       -58.7628
  14   1.0000      -0.592854       -16.1324
  15   1.0000      -0.302795        -8.2395
  16   1.0000      -0.287600        -7.8260
  17   1.0000      -0.287600        -7.8260
  18   1.0000      -0.260271        -7.0823
  19   1.0000      -0.227711        -6.1963
  20   1.0000      -0.222059        -6.0425
  21   1.0000      -0.194503        -5.2927
  22   1.0000      -0.194503        -5.2927
  23   0.0000      -0.133541        -3.6338
  24   0.0000      -0.031738        -0.8636
  25   0.0000      -0.031738        -0.8636
  26   0.0000       0.014952         0.4069
  27   0.0000       0.050590         1.3766

                 SPIN DOWN ORBITALS
  NO   OCC          E(Eh)            E(eV)
   0   1.0000    -255.257655     -6945.9139
   1   1.0000     -88.314738     -2403.1662
   2   1.0000     -29.615876      -805.8890
   3   1.0000     -25.506978      -694.0802
   4   1.0000     -25.492632      -693.6898
   5   1.0000     -25.492632      -693.6898
   6   1.0000      -7.695651      -209.4093
   7   1.0000      -5.673841      -154.3931
   8   1.0000      -5.670096      -154.2911
   9   1.0000      -5.670096      -154.2911
  10   1.0000      -3.252798       -88.5131
  11   1.0000      -2.059545       -56.0431
  12   1.0000      -2.042464       -55.5783
  13   1.0000      -2.042464       -55.5783
  14   1.0000      -0.579027       -15.7561
  15   1.0000      -0.262452        -7.1417
  16   1.0000      -0.218443        -5.9441
  17   1.0000      -0.218443        -5.9441
  18   1.0000      -0.170472        -4.6388
  19   0.0000      -0.145795        -3.9673
  20   0.0000      -0.122498        -3.3333
  21   0.0000      -0.122498        -3.3333
  22   0.0000      -0.097696        -2.6585
  23   0.0000      -0.095214        -2.5909

MULLIKEN ATOMIC CHARGES AND SPIN POPULATIONS
--------------------------------------------
   0 Fe:    0.361048    3.560596
   1 S :   -0.361048    0.439404
Sum of atomic charges         :   -0.0000000

LOEWDIN ATOMIC CHARGES AND SPIN POPULATIONS
-------------------------------------------
   0 Fe:    0.046545    3.413434
   1 S :   -0.046545    0.586566

  Mayer bond orders larger than 0.100000
B(  0-Fe,  1-S ) :   2.1060

Dispersion correction           -0.001619957
FINAL SINGLE POINT ENERGY     -1661.988097037997

DIPOLE MOMENT
-------------
                                X             Y             Z
Electronic contribution:     -0.00000       0.00000       4.59057
Nuclear contribution   :      0.00000       0.00000      -2.60707
                        -----------------------------------------
Total Dipole Moment    :     -0.00000       0.00000       1.98350
                        -----------------------------------------
Magnitude (a.u.)       :      1.98350
Magnitude (Debye)      :      5.04165

Rotational constants in cm-1:     0.000000     0.202836     0.202836
Rotational constants in MHz :     0.000000  6080.880231  6080.880231

                             ****ORCA TERMINATED NORMALLY****
TOTAL RUN TIME: 0 days 0 hours 0 minutes 3 seconds 722 msec
