                         Program Version 4.2.0 -  RELEASE  -
|  1> #
|  2> # TMD24_ZnS TPSS-D3BJ/Def2-TZVPPD
|  3> #
|  4> ! tpss d3bj def2-tzvppd def2/j grid4 nofinalgrid
|  5>
|  6> *xyz 0 1
|  7> Zn       0.000000    0.000000    0.720000
|  8> S        0.000000    0.000000   -1.350000
|  9> *
| 10>
| 11> %maxcore 5000
| 12>
| 13> %pal
| 14> nprocs = 24
| 15> end
| 16>
| 17>
| 18>                          ****END OF INPUT****

CARTESIAN COORDINATES (ANGSTROEM)
---------------------------------
  Zn     0.000000    0.000000    0.720000
  S      0.000000    0.000000   -1.350000

 Total Charge           Charge          ....    0
 Multiplicity           Mult            ....    1
 Number of Electrons    NEL             ....   46
 Basis Dimension        Dim             ....  118

ORBITAL ENERGIES
----------------

  NO   OCC          E(Eh)            E(eV)
   0   2.0000    -346.381879     -9425.5301
   1   2.0000     -88.324979     -2403.4449
   2   2.0000     -41.835862     -1138.4117
   3   2.0000     -36.829343     -1002.1774
   4   2.0000     -36.829343     -1002.1774
   5   2.0000     -36.828031     -1002.1417
   6   2.0000      -7.704328      -209.6454
   7   2.0000      -5.687397      -154.7619
   8   2.0000      -5.677094      -154.4816
   9   2.0000      -5.677094      -154.4816
  10   2.0000      -4.729687      -128.7013
  11   2.0000      -3.139811       -85.4386
  12   2.0000      -3.135684       -85.3263
  13   2.0000      -3.135684       -85.3263
  14   2.0000      -0.602758       -16.4019
  15   2.0000      -0.472438       -12.8557
  16   2.0000      -0.472438       -12.8557
  17   2.0000      -0.467870       -12.7314
  18   2.0000      -0.465572       -12.6689
  19   2.0000      -0.465569       -12.6688
  20   2.0000      -0.294636        -8.0175
  21   2.0000      -0.202929        -5.5220
  22   2.0000      -0.202929        -5.5220
  23   0.0000      -0.176986        -4.8160
  24   0.0000      -0.045085        -1.2268
  25   0.0000      -0.045085        -1.2268
  26   0.0000       0.003826         0.1041
  27   0.0000       0.034330         0.9342

MULLIKEN ATOMIC CHARGES
-----------------------
   0 Zn:    0.258276
   1 S :   -0.258276
Sum of atomic charges:   -0.0000000

LOEWDIN ATOMIC CHARGES
----------------------
   0 Zn:    0.330880
   1 S :   -0.330880

  Mayer bond orders larger than 0.100000
B(  0-Zn,  1-S ) :   1.8122

Dispersion correction           -0.001733500
FINAL SINGLE POINT ENERGY     -2177.602023485517

DIPOLE MOMENT
-------------
                                X             Y             Z
Electronic contribution:      0.00000      -0.00000       5.45287
Nuclear contribution   :      0.00000       0.00000      -3.38342
                        -----------------------------------------
Total Dipole Moment    :      0.00000      -0.00000       2.06945
                        -----------------------------------------
Magnitude (a.u.)       :      2.06945
Magnitude (Debye)      :      5.26012

Rotational constants in cm-1:     0.000000     0.182888     0.182888
Rotational constants in MHz :     0.000000  5482.842292  5482.842292

                             ****ORCA TERMINATED NORMALLY****
TOTAL RUN TIME: 0 days 0 hours 0 minutes 3 seconds 184 msec
