                         Program Version 4.2.0 -  RELEASE  -
|  1> #
|  2> # TMD23_CuBr TPSS-D3BJ/Def2-TZVPPD
|  3> #
|  4> ! tpss d3bj def2-tzvppd def2/j grid4 nofinalgrid
|  5>
|  6> *xyz 0 1
|  7> Cu       0.000000    0.000000   -1.208594
|  8> Br       0.000000    0.000000    1.001406
|  9> *
| 10>
| 11> %maxcore 5000
| 12>
| 13> %pal
| 14> nprocs = 24
| 15> end
| 16>
| 17>
| 18>                          ****END OF INPUT****

CARTESIAN COORDINATES (ANGSTROEM)
---------------------------------
  Cu     0.000000    0.000000   -1.208594
  Br     0.000000    0.000000    1.001406

 Total Charge           Charge          ....    0
 Multiplicity           Mult            ....    1
 Number of Electrons    NEL             ....   64
 Basis Dimension        Dim             ....  124

ORBITAL ENERGIES
----------------

  NO   OCC          E(Eh)            E(eV)
   0   2.0000    -481.697172    -13107.6464
   1   2.0000    -322.130998     -8765.6301
   2   2.0000     -61.913678     -1684.7568
   3   2.0000     -55.746559     -1516.9410
   4   2.0000     -55.744755     -1516.8919
   5   2.0000     -55.744755     -1516.8919
   6   2.0000     -38.420110     -1045.4643
   7   2.0000     -33.639192      -915.3690
   8   2.0000     -33.639192      -915.3690
   9   2.0000     -33.639072      -915.3657
  10   2.0000      -8.443834      -229.7684
  11   2.0000      -6.285597      -171.0398
  12   2.0000      -6.278872      -170.8568
  13   2.0000      -6.278872      -170.8568
  14   2.0000      -4.181016      -113.7712
  15   2.0000      -2.697325       -73.3979
  16   2.0000      -2.690682       -73.2172
  17   2.0000      -2.690682       -73.2172
  18   2.0000      -2.452753       -66.7428
  19   2.0000      -2.450903       -66.6925
  20   2.0000      -2.450903       -66.6925
  21   2.0000      -2.445745       -66.5521
  22   2.0000      -2.445702       -66.5509
  23   2.0000      -0.675177       -18.3725
  24   2.0000      -0.312966        -8.5162
  25   2.0000      -0.269239        -7.3264
  26   2.0000      -0.269239        -7.3264
  27   2.0000      -0.238117        -6.4795
  28   2.0000      -0.238114        -6.4794
  29   2.0000      -0.228349        -6.2137
  30   2.0000      -0.218185        -5.9371
  31   2.0000      -0.218185        -5.9371
  32   0.0000      -0.136537        -3.7154
  33   0.0000      -0.020732        -0.5641
  34   0.0000      -0.020732        -0.5641
  35   0.0000       0.013393         0.3644
  36   0.0000       0.050436         1.3724

MULLIKEN ATOMIC CHARGES
-----------------------
   0 Cu:    0.042124
   1 Br:   -0.042124
Sum of atomic charges:   -0.0000000

LOEWDIN ATOMIC CHARGES
----------------------
   0 Cu:    0.009879
   1 Br:   -0.009879

  Mayer bond orders larger than 0.100000
B(  0-Cu,  1-Br) :   1.2118

Dispersion correction           -0.001511858
FINAL SINGLE POINT ENERGY     -4214.664987060839

DIPOLE MOMENT
-------------
                                X             Y             Z
Electronic contribution:     -0.00000       0.00000       0.91952
Nuclear contribution   :      0.00000       0.00000      -2.70316
                        -----------------------------------------
Total Dipole Moment    :     -0.00000       0.00000      -1.78364
                        -----------------------------------------
Magnitude (a.u.)       :      1.78364
Magnitude (Debye)      :      4.53365

Rotational constants in cm-1:     0.000000     0.097510     0.097510
Rotational constants in MHz :     0.000000  2923.285786  2923.285786

                             ****ORCA TERMINATED NORMALLY****
TOTAL RUN TIME: 0 days 0 hours 0 minutes 3 seconds 267 msec
