                         Program Version 4.2.0 -  RELEASE  -
|  1> #
|  2> # TMD22_CoF TPSS-D3BJ/Def2-TZVPPD
|  3> #
|  4> ! tpss d3bj def2-tzvppd def2/j grid4 nofinalgrid
|  5>
|  6> *xyz 0 3
|  7> Co       0.000000    0.000000    0.440000
|  8> F        0.000000    0.000000   -1.320000
|  9> *
| 10>
| 11> %maxcore 5000
| 12>
| 13> %pal
| 14> nprocs = 24
| 15> end
| 16>
| 17>
| 18>                          ****END OF INPUT****

CARTESIAN COORDINATES (ANGSTROEM)
---------------------------------
  Co     0.000000    0.000000    0.440000
  F      0.000000    0.000000   -1.320000

 Total Charge           Charge          ....    0
 Multiplicity           Mult            ....    3
 Number of Electrons    NEL             ....   36
 Basis Dimension        Dim             ....  107

ORBITAL ENERGIES
----------------
                 SPIN UP ORBITALS
  NO   OCC          E(Eh)            E(eV)
   0   1.0000    -276.665114     -7528.4405
   1   1.0000     -32.446024      -882.9012
   2   1.0000     -28.105188      -764.7810
   3   1.0000     -28.103374      -764.7317
   4   1.0000     -28.097260      -764.5653
   5   1.0000     -24.338886      -662.2948
   6   1.0000      -3.621386       -98.5429
   7   1.0000      -2.333326       -63.4930
   8   1.0000      -2.327550       -63.3359
   9   1.0000      -2.313921       -62.9650
  10   1.0000      -1.009896       -27.4807
  11   1.0000      -0.355461        -9.6726
  12   1.0000      -0.322609        -8.7786
  13   1.0000      -0.311224        -8.4688
  14   1.0000      -0.248970        -6.7748
  15   1.0000      -0.236851        -6.4450
  16   1.0000      -0.214524        -5.8375
  17   1.0000      -0.204557        -5.5663
  18   1.0000      -0.201686        -5.4882
  19   0.0000      -0.138231        -3.7615
  20   0.0000      -0.021038        -0.5725
  21   0.0000      -0.018975        -0.5163
  22   0.0000       0.022800         0.6204
  23   0.0000       0.067571         1.8387

                 SPIN DOWN ORBITALS
  NO   OCC          E(Eh)            E(eV)
   0   1.0000    -276.664677     -7528.4286
   1   1.0000     -32.412114      -881.9785
   2   1.0000     -28.076852      -764.0100
   3   1.0000     -28.075636      -763.9769
   4   1.0000     -28.070546      -763.8384
   5   1.0000     -24.337011      -662.2437
   6   1.0000      -3.534687       -96.1837
   7   1.0000      -2.244744       -61.0826
   8   1.0000      -2.235023       -60.8181
   9   1.0000      -2.234988       -60.8171
  10   1.0000      -1.006036       -27.3756
  11   1.0000      -0.345302        -9.3961
  12   1.0000      -0.306074        -8.3287
  13   1.0000      -0.300203        -8.1689
  14   1.0000      -0.183071        -4.9816
  15   1.0000      -0.174571        -4.7503
  16   1.0000      -0.171894        -4.6775
  17   0.0000      -0.129751        -3.5307
  18   0.0000      -0.117433        -3.1955
  19   0.0000      -0.102599        -2.7919
  20   0.0000      -0.018836        -0.5126
  21   0.0000      -0.013465        -0.3664

MULLIKEN ATOMIC CHARGES AND SPIN POPULATIONS
--------------------------------------------
   0 Co:    0.591010    1.945598
   1 F :   -0.591010    0.054402
Sum of atomic charges         :   -0.0000000

LOEWDIN ATOMIC CHARGES AND SPIN POPULATIONS
-------------------------------------------
   0 Co:    0.517820    1.942999
   1 F :   -0.517820    0.057001

  Mayer bond orders larger than 0.100000
B(  0-Co,  1-F ) :   0.8121

Dispersion correction           -0.000530608
FINAL SINGLE POINT ENERGY     -1482.710634156548

DIPOLE MOMENT
-------------
                                X             Y             Z
Electronic contribution:      0.00000       0.00000       2.47573
Nuclear contribution   :      0.00000       0.00000      -0.74365
                        -----------------------------------------
Total Dipole Moment    :      0.00000       0.00000       1.73208
                        -----------------------------------------
Magnitude (a.u.)       :      1.73208
Magnitude (Debye)      :      4.40260

Rotational constants in cm-1:     0.000000     0.378809     0.378809
Rotational constants in MHz :     0.000000 11356.420741 11356.420741

                             ****ORCA TERMINATED NORMALLY****
TOTAL RUN TIME: 0 days 0 hours 0 minutes 6 seconds 725 msec
