                         Program Version 4.2.0 -  RELEASE  -
|  1> #
|  2> # MOR08_ed05 ri-DSD-BLYP/2013-D3BJ/Def2-TZVPPD
|  3> #
|  4> ! rijk ri-dsd-blyp/2013 d3bj def2-tzvppd def2/jk def2-tzvppd/c grid4 nofinalgrid
|  5>
|  6> *xyz 0 1
|  7> Mn      -0.000015    0.000034   -0.156112
|  8> O       -2.966556    0.069032   -0.568565
|  9> C       -1.835048    0.042703   -0.376221
| 10> C        0.000106   -0.000266    1.691489
| 11> O        0.000196   -0.000501    2.842648
| 12> C        1.835004   -0.042558   -0.376374
| 13> O        2.966501   -0.068795   -0.568793
| 14> C        0.042608    1.834986   -0.376689
| 15> O        0.068875    2.966413   -0.569532
| 16> C       -0.042655   -1.834886   -0.377054
| 17> O       -0.068962   -2.966280   -0.570073
| 18> H       -0.000145    0.000318   -1.733571
| 19> *
| 20>
| 21> %maxcore 5000
| 22>
| 23> %pal
| 24> nprocs = 24
| 25> end
| 26>
| 27>
| 28>                          ****END OF INPUT****

CARTESIAN COORDINATES (ANGSTROEM)
---------------------------------
  Mn    -0.000015    0.000034   -0.156112
  O     -2.966556    0.069032   -0.568565
  C     -1.835048    0.042703   -0.376221
  C      0.000106   -0.000266    1.691489
  O      0.000196   -0.000501    2.842648
  C      1.835004   -0.042558   -0.376374
  O      2.966501   -0.068795   -0.568793
  C      0.042608    1.834986   -0.376689
  O      0.068875    2.966413   -0.569532
  C     -0.042655   -1.834886   -0.377054
  O     -0.068962   -2.966280   -0.570073
  H     -0.000145    0.000318   -1.733571

 Total Charge           Charge          ....    0
 Multiplicity           Mult            ....    1
 Number of Electrons    NEL             ....   96
 Basis Dimension        Dim             ....  469

ORBITAL ENERGIES
----------------

  NO   OCC          E(Eh)            E(eV)
   0   2.0000    -238.757949     -6496.9341
   1   2.0000     -28.517734      -776.0070
   2   2.0000     -24.355587      -662.7492
   3   2.0000     -24.355587      -662.7492
   4   2.0000     -24.351948      -662.6502
   5   2.0000     -20.158324      -548.5359
   6   2.0000     -20.157758      -548.5205
   7   2.0000     -20.157755      -548.5204
   8   2.0000     -20.157742      -548.5200
   9   2.0000     -20.157736      -548.5199
  10   2.0000     -11.014511      -299.7201
  11   2.0000     -11.014187      -299.7113
  12   2.0000     -11.014185      -299.7112
  13   2.0000     -11.014176      -299.7110
  14   2.0000     -11.014172      -299.7109
  15   2.0000      -3.595104       -97.8278
  16   2.0000      -2.336428       -63.5774
  17   2.0000      -2.336427       -63.5774
  18   2.0000      -2.327970       -63.3473
  19   2.0000      -1.393424       -37.9170
  20   2.0000      -1.392512       -37.8922
  21   2.0000      -1.392496       -37.8917
  22   2.0000      -1.391858       -37.8744
  23   2.0000      -1.391246       -37.8577
  24   2.0000      -0.783612       -21.3232
  25   2.0000      -0.738235       -20.0884
  26   2.0000      -0.738221       -20.0880
  27   2.0000      -0.737543       -20.0696
  28   2.0000      -0.732157       -19.9230
  29   2.0000      -0.660839       -17.9823
  30   2.0000      -0.615277       -16.7425
  31   2.0000      -0.609048       -16.5730
  32   2.0000      -0.609044       -16.5729
  33   2.0000      -0.605507       -16.4767
  34   2.0000      -0.603736       -16.4285
  35   2.0000      -0.603727       -16.4282
  36   2.0000      -0.589080       -16.0297
  37   2.0000      -0.585765       -15.9395
  38   2.0000      -0.585763       -15.9394
  39   2.0000      -0.579639       -15.7728
  40   2.0000      -0.571181       -15.5426
  41   2.0000      -0.570498       -15.5240
  42   2.0000      -0.549523       -14.9533
  43   2.0000      -0.549513       -14.9530
  44   2.0000      -0.377549       -10.2736
  45   2.0000      -0.373378       -10.1601
  46   2.0000      -0.370305       -10.0765
  47   2.0000      -0.370284       -10.0760
  48   0.0000       0.025441         0.6923
  49   0.0000       0.038506         1.0478
  50   0.0000       0.038507         1.0478
  51   0.0000       0.046975         1.2783
  52   0.0000       0.049015         1.3338

MULLIKEN ATOMIC CHARGES
-----------------------
   0 Mn:    0.667771
   1 O :   -0.311339
   2 C :    0.277114
   3 C :    0.012956
   4 O :   -0.327822
   5 C :    0.277651
   6 O :   -0.311300
   7 C :    0.275421
   8 O :   -0.311379
   9 C :    0.275653
  10 O :   -0.311375
  11 H :   -0.213350
Sum of atomic charges:   -0.0000000

LOEWDIN ATOMIC CHARGES
----------------------
   0 Mn:   -0.551698
   1 O :    0.142837
   2 C :   -0.050538
   3 C :   -0.014964
   4 O :    0.132971
   5 C :   -0.050531
   6 O :    0.142840
   7 C :   -0.050576
   8 O :    0.142812
   9 C :   -0.050558
  10 O :    0.142818
  11 H :    0.064588

  Mayer bond orders larger than 0.100000
B(  0-Mn,  2-C ) :   0.6785 B(  0-Mn,  3-C ) :   0.6463 B(  0-Mn,  5-C ) :   0.6790
B(  0-Mn,  7-C ) :   0.6792 B(  0-Mn,  9-C ) :   0.6792 B(  0-Mn, 11-H ) :   0.6929
B(  1-O ,  2-C ) :   2.1760 B(  3-C ,  4-O ) :   2.1356 B(  5-C ,  6-O ) :   2.1760
B(  7-C ,  8-O ) :   2.1760 B(  9-C , 10-O ) :   2.1760

MP2 TOTAL ENERGY:    -1717.745287426 Eh
Dispersion correction           -0.016649473
FINAL SINGLE POINT ENERGY     -1717.761936898776

DIPOLE MOMENT
-------------
                                X             Y             Z
Electronic contribution:      0.00011      -0.00023       1.25133
Nuclear contribution   :     -0.00006       0.00014      -0.87929
                        -----------------------------------------
Total Dipole Moment    :      0.00004      -0.00010       0.37204
                        -----------------------------------------
Magnitude (a.u.)       :      0.37204
Magnitude (Debye)      :      0.94565

Rotational constants in cm-1:     0.030200     0.030198     0.023242
Rotational constants in MHz :   905.379927   905.310991   696.775514

                             ****ORCA TERMINATED NORMALLY****
TOTAL RUN TIME: 0 days 0 hours 0 minutes 21 seconds 89 msec
