                         Program Version 4.2.0 -  RELEASE  -
|  1> #
|  2> # MOR01_accl ri-DSD-BLYP/2013-D3BJ/Def2-TZVPPD
|  3> #
|  4> ! rijk ri-dsd-blyp/2013 d3bj def2-tzvppd def2/jk def2-tzvppd/c grid4 nofinalgrid
|  5>
|  6> *xyz 0 1
|  7> C        1.306659   -1.017500   -0.000028
|  8> C        0.488515    0.240833   -0.000079
|  9> H        2.367301   -0.760167   -0.001300
| 10> H        1.052624   -1.613812   -0.881062
| 11> H        1.054555   -1.612076    0.882774
| 12> O        0.865971    1.367720    0.000018
| 13> Cl      -1.304312   -0.135041    0.000005
| 14> *
| 15>
| 16> %maxcore 5000
| 17>
| 18> %pal
| 19> nprocs = 24
| 20> end
| 21>
| 22>
| 23>                          ****END OF INPUT****

CARTESIAN COORDINATES (ANGSTROEM)
---------------------------------
  C      1.306659   -1.017500   -0.000028
  C      0.488515    0.240833   -0.000079
  H      2.367301   -0.760167   -0.001300
  H      1.052624   -1.613812   -0.881062
  H      1.054555   -1.612076    0.882774
  O      0.865971    1.367720    0.000018
  Cl    -1.304312   -0.135041    0.000005

 Total Charge           Charge          ....    0
 Multiplicity           Mult            ....    1
 Number of Electrons    NEL             ....   40
 Basis Dimension        Dim             ....  216

ORBITAL ENERGIES
----------------

  NO   OCC          E(Eh)            E(eV)
   0   2.0000    -103.658707     -2820.6968
   1   2.0000     -20.089129      -546.6530
   2   2.0000     -11.033691      -300.2420
   3   2.0000     -10.895014      -296.4684
   4   2.0000     -10.174476      -276.8616
   5   2.0000      -7.747906      -210.8312
   6   2.0000      -7.744438      -210.7369
   7   2.0000      -7.744049      -210.7263
   8   2.0000      -1.328117       -36.1399
   9   2.0000      -1.033490       -28.1227
  10   2.0000      -0.942103       -25.6359
  11   2.0000      -0.706401       -19.2221
  12   2.0000      -0.618829       -16.8392
  13   2.0000      -0.607740       -16.5374
  14   2.0000      -0.590479       -16.0678
  15   2.0000      -0.532905       -14.5011
  16   2.0000      -0.505260       -13.7488
  17   2.0000      -0.421131       -11.4595
  18   2.0000      -0.420290       -11.4367
  19   2.0000      -0.404494       -11.0068
  20   0.0000       0.035136         0.9561
  21   0.0000       0.047231         1.2852
  22   0.0000       0.057712         1.5704
  23   0.0000       0.067723         1.8428
  24   0.0000       0.078442         2.1345

MULLIKEN ATOMIC CHARGES
-----------------------
   0 C :   -0.165792
   1 C :    0.712568
   2 H :    0.061717
   3 H :    0.088646
   4 H :    0.088497
   5 O :   -0.455246
   6 Cl:   -0.330391
Sum of atomic charges:   -0.0000000

LOEWDIN ATOMIC CHARGES
----------------------
   0 C :    0.132487
   1 C :   -0.715051
   2 H :    0.000323
   3 H :   -0.004524
   4 H :   -0.004433
   5 O :    0.033859
   6 Cl:    0.557340

  Mayer bond orders larger than 0.100000
B(  0-C ,  1-C ) :   0.8977 B(  0-C ,  2-H ) :   1.0002 B(  0-C ,  3-H ) :   0.9778
B(  0-C ,  4-H ) :   0.9777 B(  1-C ,  5-O ) :   1.9591 B(  1-C ,  6-Cl) :   0.7491

MP2 TOTAL ENERGY:     -613.123718999 Eh
Dispersion correction           -0.005022297
FINAL SINGLE POINT ENERGY      -613.128741295620

DIPOLE MOMENT
-------------
                                X             Y             Z
Electronic contribution:     -5.51118       2.55001      -0.00036
Nuclear contribution   :      6.08095      -3.60915       0.00039
                        -----------------------------------------
Total Dipole Moment    :      0.56977      -1.05914       0.00003
                        -----------------------------------------
Magnitude (a.u.)       :      1.20267
Magnitude (Debye)      :      3.05694

Rotational constants in cm-1:     0.334975     0.160198     0.110601
Rotational constants in MHz : 10042.310181  4802.622935  3315.727154

                             ****ORCA TERMINATED NORMALLY****
TOTAL RUN TIME: 0 days 0 hours 0 minutes 5 seconds 531 msec
