                         Program Version 4.2.0 -  RELEASE  -
|  1> #
|  2> # MOR03_c2h4 ri-DSD-BLYP/2013-D3BJ/Def2-TZVPPD
|  3> #
|  4> ! rijk ri-dsd-blyp/2013 d3bj def2-tzvppd def2/jk def2-tzvppd/c grid4 nofinalgrid
|  5>
|  6> *xyz 0 1
|  7> C        0.000000    0.665348   -0.000001
|  8> C        0.000000   -0.665348   -0.000001
|  9> H       -0.924311    1.237390    0.000003
| 10> H        0.924311    1.237390    0.000003
| 11> H        0.924311   -1.237390    0.000003
| 12> H       -0.924311   -1.237390    0.000003
| 13> *
| 14>
| 15> %maxcore 5000
| 16>
| 17> %pal
| 18> nprocs = 24
| 19> end
| 20>
| 21>
| 22>                          ****END OF INPUT****

CARTESIAN COORDINATES (ANGSTROEM)
---------------------------------
  C      0.000000    0.665348   -0.000001
  C      0.000000   -0.665348   -0.000001
  H     -0.924311    1.237390    0.000003
  H      0.924311    1.237390    0.000003
  H      0.924311   -1.237390    0.000003
  H     -0.924311   -1.237390    0.000003

 Total Charge           Charge          ....    0
 Multiplicity           Mult            ....    1
 Number of Electrons    NEL             ....   16
 Basis Dimension        Dim             ....  142

ORBITAL ENERGIES
----------------

  NO   OCC          E(Eh)            E(eV)
   0   2.0000     -10.855222      -295.3856
   1   2.0000     -10.853772      -295.3462
   2   2.0000      -0.939212       -25.5573
   3   2.0000      -0.719273       -19.5724
   4   2.0000      -0.583561       -15.8795
   5   2.0000      -0.532964       -14.5027
   6   2.0000      -0.454926       -12.3792
   7   2.0000      -0.345794        -9.4095
   8   0.0000       0.058008         1.5785
   9   0.0000       0.070809         1.9268
  10   0.0000       0.080335         2.1860
  11   0.0000       0.110327         3.0022
  12   0.0000       0.148481         4.0404

MULLIKEN ATOMIC CHARGES
-----------------------
   0 C :   -0.058057
   1 C :   -0.058046
   2 H :    0.029023
   3 H :    0.029030
   4 H :    0.029028
   5 H :    0.029022
Sum of atomic charges:    0.0000000

LOEWDIN ATOMIC CHARGES
----------------------
   0 C :    0.103108
   1 C :    0.103108
   2 H :   -0.051554
   3 H :   -0.051554
   4 H :   -0.051554
   5 H :   -0.051554

  Mayer bond orders larger than 0.100000
B(  0-C ,  1-C ) :   1.8319 B(  0-C ,  2-H ) :   1.0181 B(  0-C ,  3-H ) :   1.0180
B(  1-C ,  4-H ) :   1.0180 B(  1-C ,  5-H ) :   1.0181

MP2 TOTAL ENERGY:      -78.506366197 Eh
Dispersion correction           -0.002389420
FINAL SINGLE POINT ENERGY       -78.508755617366

DIPOLE MOMENT
-------------
                                X             Y             Z
Electronic contribution:      0.00000       0.00000      -0.00001
Nuclear contribution   :      0.00000       0.00000       0.00001
                        -----------------------------------------
Total Dipole Moment    :      0.00000       0.00000       0.00000
                        -----------------------------------------
Magnitude (a.u.)       :      0.00000
Magnitude (Debye)      :      0.00001

Rotational constants in cm-1:     4.893731     1.002967     0.832372
Rotational constants in MHz : 146710.378489 30068.182911 24953.899728

                             ****ORCA TERMINATED NORMALLY****
TOTAL RUN TIME: 0 days 0 hours 0 minutes 3 seconds 852 msec
