                         Program Version 4.2.0 -  RELEASE  -
|  1> #
|  2> # MOR04_c2h6 ri-DSD-BLYP/2013-D3BJ/Def2-TZVPPD
|  3> #
|  4> ! rijk ri-dsd-blyp/2013 d3bj def2-tzvppd def2/jk def2-tzvppd/c grid4 nofinalgrid
|  5>
|  6> *xyz 0 1
|  7> C       -0.765850   -0.000004    0.000000
|  8> C        0.765850    0.000004    0.000000
|  9> H       -1.162381   -1.020936   -0.022850
| 10> H       -1.162409    0.530251   -0.872720
| 11> H       -1.162411    0.490675    0.895568
| 12> H        1.162410   -0.530239    0.872727
| 13> H        1.162411   -0.490686   -0.895561
| 14> H        1.162381    1.020936    0.022836
| 15> *
| 16>
| 17> %maxcore 5000
| 18>
| 19> %pal
| 20> nprocs = 24
| 21> end
| 22>
| 23>
| 24>                          ****END OF INPUT****

CARTESIAN COORDINATES (ANGSTROEM)
---------------------------------
  C     -0.765850   -0.000004    0.000000
  C      0.765850    0.000004    0.000000
  H     -1.162381   -1.020936   -0.022850
  H     -1.162409    0.530251   -0.872720
  H     -1.162411    0.490675    0.895568
  H      1.162410   -0.530239    0.872727
  H      1.162411   -0.490686   -0.895561
  H      1.162381    1.020936    0.022836

 Total Charge           Charge          ....    0
 Multiplicity           Mult            ....    1
 Number of Electrons    NEL             ....   18
 Basis Dimension        Dim             ....  176

ORBITAL ENERGIES
----------------

  NO   OCC          E(Eh)            E(eV)
   0   2.0000     -10.837515      -294.9038
   1   2.0000     -10.837051      -294.8911
   2   2.0000      -0.922998       -25.1160
   3   2.0000      -0.761743       -20.7281
   4   2.0000      -0.540112       -14.6972
   5   2.0000      -0.540107       -14.6971
   6   2.0000      -0.460650       -12.5349
   7   2.0000      -0.437417       -11.9027
   8   2.0000      -0.437413       -11.9026
   9   0.0000       0.053425         1.4538
  10   0.0000       0.073698         2.0054
  11   0.0000       0.118932         3.2363
  12   0.0000       0.118939         3.2365
  13   0.0000       0.143295         3.8993

MULLIKEN ATOMIC CHARGES
-----------------------
   0 C :   -0.134277
   1 C :   -0.134208
   2 H :    0.044799
   3 H :    0.044707
   4 H :    0.044763
   5 H :    0.044685
   6 H :    0.044750
   7 H :    0.044781
Sum of atomic charges:    0.0000000

LOEWDIN ATOMIC CHARGES
----------------------
   0 C :    0.079184
   1 C :    0.079184
   2 H :   -0.026397
   3 H :   -0.026394
   4 H :   -0.026393
   5 H :   -0.026393
   6 H :   -0.026394
   7 H :   -0.026397

  Mayer bond orders larger than 0.100000
B(  0-C ,  1-C ) :   0.7962 B(  0-C ,  2-H ) :   1.0226 B(  0-C ,  3-H ) :   1.0228
B(  0-C ,  4-H ) :   1.0227 B(  1-C ,  5-H ) :   1.0228 B(  1-C ,  6-H ) :   1.0227
B(  1-C ,  7-H ) :   1.0226

MP2 TOTAL ENERGY:      -79.740028745 Eh
Dispersion correction           -0.003070678
FINAL SINGLE POINT ENERGY       -79.743099422826

DIPOLE MOMENT
-------------
                                X             Y             Z
Electronic contribution:     -0.00000      -0.00000      -0.00000
Nuclear contribution   :      0.00000       0.00000      -0.00000
                        -----------------------------------------
Total Dipole Moment    :      0.00000       0.00000      -0.00000
                        -----------------------------------------
Magnitude (a.u.)       :      0.00000
Magnitude (Debye)      :      0.00000

Rotational constants in cm-1:     2.672873     0.663298     0.663297
Rotational constants in MHz : 80130.723455 19885.185427 19885.132514

                             ****ORCA TERMINATED NORMALLY****
TOTAL RUN TIME: 0 days 0 hours 0 minutes 4 seconds 144 msec
