                         Program Version 4.2.0 -  RELEASE  -
|  1> #
|  2> # MOR05_co ri-DSD-BLYP/2013-D3BJ/Def2-TZVPPD
|  3> #
|  4> ! rijk ri-dsd-blyp/2013 d3bj def2-tzvppd def2/jk def2-tzvppd/c grid4 nofinalgrid
|  5>
|  6> *xyz 0 1
|  7> O        0.000000    0.000000    0.486237
|  8> C        0.000000    0.000000   -0.648315
|  9> *
| 10>
| 11> %maxcore 5000
| 12>
| 13> %pal
| 14> nprocs = 24
| 15> end
| 16>
| 17>
| 18>                          ****END OF INPUT****

CARTESIAN COORDINATES (ANGSTROEM)
---------------------------------
  O      0.000000    0.000000    0.486237
  C      0.000000    0.000000   -0.648315

 Total Charge           Charge          ....    0
 Multiplicity           Mult            ....    1
 Number of Electrons    NEL             ....   14
 Basis Dimension        Dim             ....   77

ORBITAL ENERGIES
----------------

  NO   OCC          E(Eh)            E(eV)
   0   2.0000     -20.157419      -548.5113
   1   2.0000     -10.985308      -298.9254
   2   2.0000      -1.395088       -37.9623
   3   2.0000      -0.728002       -19.8099
   4   2.0000      -0.584717       -15.9110
   5   2.0000      -0.584717       -15.9110
   6   2.0000      -0.497610       -13.5406
   7   0.0000       0.058645         1.5958
   8   0.0000       0.060562         1.6480
   9   0.0000       0.060562         1.6480
  10   0.0000       0.099164         2.6984
  11   0.0000       0.104559         2.8452

MULLIKEN ATOMIC CHARGES
-----------------------
   0 O :   -0.186919
   1 C :    0.186919
Sum of atomic charges:   -0.0000000

LOEWDIN ATOMIC CHARGES
----------------------
   0 O :   -0.020673
   1 C :    0.020673

  Mayer bond orders larger than 0.100000
B(  0-O ,  1-C ) :   2.3587

MP2 TOTAL ENERGY:     -113.247268593 Eh
Dispersion correction           -0.000514572
FINAL SINGLE POINT ENERGY      -113.247783165297

DIPOLE MOMENT
-------------
                                X             Y             Z
Electronic contribution:     -0.00000      -0.00000      -0.07478
Nuclear contribution   :      0.00000       0.00000       0.00720
                        -----------------------------------------
Total Dipole Moment    :     -0.00000      -0.00000      -0.06759
                        -----------------------------------------
Magnitude (a.u.)       :      0.06759
Magnitude (Debye)      :      0.17179

Rotational constants in cm-1:     0.000000     1.908926     1.908926
Rotational constants in MHz :     0.000000 57228.174924 57228.174924

                             ****ORCA TERMINATED NORMALLY****
TOTAL RUN TIME: 0 days 0 hours 0 minutes 3 seconds 577 msec
