                         Program Version 4.2.0 -  RELEASE  -
|  1> #
|  2> # MOR09_ed07 ri-DSD-BLYP/2013-D3BJ/Def2-TZVPPD
|  3> #
|  4> ! rijk ri-dsd-blyp/2013 d3bj def2-tzvppd def2/jk def2-tzvppd/c grid4 nofinalgrid
|  5>
|  6> *xyz 0 1
|  7> W        0.102077    0.091078   -0.092267
|  8> C        0.117393   -1.847063   -0.698289
|  9> O        0.106421   -2.944423   -1.101491
| 10> C        0.053830    0.623127   -1.953542
| 11> O        0.062184    0.954188   -3.084324
| 12> C       -0.079789    2.065684    0.368043
| 13> O       -0.241835    3.206144    0.563164
| 14> P       -2.374272   -0.093775    0.152024
| 15> C       -2.924700   -0.636961    1.860300
| 16> H       -4.020662   -0.654132    1.869520
| 17> C       -3.301587    1.526034   -0.042070
| 18> H       -2.720709    2.174283    0.626552
| 19> C       -3.158465   -1.412689   -0.926528
| 20> H       -2.602719   -2.298136   -0.589541
| 21> C        3.533012   -1.160075   -0.926747
| 22> P        2.541683   -0.047968    0.198665
| 23> H        3.436930   -0.493420    2.480788
| 24> H        3.117150   -2.146572   -0.686664
| 25> C        3.597094    1.476716    0.423185
| 26> H        4.630625    1.133957    0.560412
| 27> C       -3.162167    2.103519   -1.458162
| 28> H       -3.455722    3.159421   -1.453162
| 29> H       -3.815975    1.580772   -2.162650
| 30> H       -2.136423    2.033109   -1.825887
| 31> C       -4.764402    1.570333    0.422322
| 32> H       -5.415801    0.983387   -0.229568
| 33> H       -5.116762    2.608723    0.390691
| 34> H       -4.893747    1.210688    1.447022
| 35> C       -4.655036   -1.682881   -0.716884
| 36> H       -4.925909   -1.790522    0.337405
| 37> H       -4.929224   -2.613829   -1.227923
| 38> H       -5.265149   -0.883893   -1.147063
| 39> C       -2.846467   -1.236186   -2.419424
| 40> H       -3.119249   -2.151958   -2.956758
| 41> H       -1.787229   -1.039228   -2.589757
| 42> H       -3.419310   -0.412085   -2.852792
| 43> C       -2.418211   -2.050160    2.179041
| 44> H       -2.879973   -2.804800    1.536232
| 45> H       -2.649558   -2.306479    3.219697
| 46> H       -1.332968   -2.120913    2.045449
| 47> C       -2.447309    0.375917    2.910548
| 48> H       -1.357998    0.484909    2.881372
| 49> H       -2.729985    0.039964    3.915237
| 50> H       -2.881675    1.366975    2.750689
| 51> C        5.039293   -1.175311   -0.637409
| 52> H        5.257150   -1.324613    0.425881
| 53> H        5.510398   -0.237807   -0.951034
| 54> H        5.518847   -1.987312   -1.196567
| 55> C        3.236493   -0.904929   -2.411567
| 56> H        3.640990    0.053418   -2.749243
| 57> C        1.267139   -0.464900    2.531536
| 58> H        2.161630   -0.902783   -2.603826
| 59> H        3.697388   -1.694627   -3.016368
| 60> C        2.697601   -2.411104    1.824913
| 61> H        0.411078   -0.840608    1.910182
| 62> H        1.101298   -0.955345    3.499474
| 63> H        1.182937    0.613220    2.672323
| 64> C        2.601288   -0.882352    1.885247
| 65> H        2.586441   -2.826896    2.833616
| 66> H        3.659680   -2.747270    1.429848
| 67> H        1.903309   -2.831808    1.199333
| 68> C        3.181998    2.276906    1.664687
| 69> H        2.135318    2.587016    1.600131
| 70> H        3.793597    3.184158    1.733044
| 71> H        3.324478    1.710719    2.590306
| 72> C        3.508784    2.354763   -0.833649
| 73> H        2.465553    2.610163   -1.046808
| 74> H        3.919372    1.854332   -1.714343
| 75> H        4.068793    3.284623   -0.679973
| 76> *
| 77>
| 78> %maxcore 5000
| 79>
| 80> %pal
| 81> nprocs = 24
| 82> end
| 83>
| 84>
| 85>                          ****END OF INPUT****

CARTESIAN COORDINATES (ANGSTROEM)
---------------------------------
  W      0.102077    0.091078   -0.092267
  C      0.117393   -1.847063   -0.698289
  O      0.106421   -2.944423   -1.101491
  C      0.053830    0.623127   -1.953542
  O      0.062184    0.954188   -3.084324
  C     -0.079789    2.065684    0.368043
  O     -0.241835    3.206144    0.563164
  P     -2.374272   -0.093775    0.152024
  C     -2.924700   -0.636961    1.860300
  H     -4.020662   -0.654132    1.869520
  C     -3.301587    1.526034   -0.042070
  H     -2.720709    2.174283    0.626552
  C     -3.158465   -1.412689   -0.926528
  H     -2.602719   -2.298136   -0.589541
  C      3.533012   -1.160075   -0.926747
  P      2.541683   -0.047968    0.198665
  H      3.436930   -0.493420    2.480788
  H      3.117150   -2.146572   -0.686664
  C      3.597094    1.476716    0.423185
  H      4.630625    1.133957    0.560412
  C     -3.162167    2.103519   -1.458162
  H     -3.455722    3.159421   -1.453162
  H     -3.815975    1.580772   -2.162650
  H     -2.136423    2.033109   -1.825887
  C     -4.764402    1.570333    0.422322
  H     -5.415801    0.983387   -0.229568
  H     -5.116762    2.608723    0.390691
  H     -4.893747    1.210688    1.447022
  C     -4.655036   -1.682881   -0.716884
  H     -4.925909   -1.790522    0.337405
  H     -4.929224   -2.613829   -1.227923
  H     -5.265149   -0.883893   -1.147063
  C     -2.846467   -1.236186   -2.419424
  H     -3.119249   -2.151958   -2.956758
  H     -1.787229   -1.039228   -2.589757
  H     -3.419310   -0.412085   -2.852792
  C     -2.418211   -2.050160    2.179041
  H     -2.879973   -2.804800    1.536232
  H     -2.649558   -2.306479    3.219697
  H     -1.332968   -2.120913    2.045449
  C     -2.447309    0.375917    2.910548
  H     -1.357998    0.484909    2.881372
  H     -2.729985    0.039964    3.915237
  H     -2.881675    1.366975    2.750689
  C      5.039293   -1.175311   -0.637409
  H      5.257150   -1.324613    0.425881
  H      5.510398   -0.237807   -0.951034
  H      5.518847   -1.987312   -1.196567
  C      3.236493   -0.904929   -2.411567
  H      3.640990    0.053418   -2.749243
  C      1.267139   -0.464900    2.531536
  H      2.161630   -0.902783   -2.603826
  H      3.697388   -1.694627   -3.016368
  C      2.697601   -2.411104    1.824913
  H      0.411078   -0.840608    1.910182
  H      1.101298   -0.955345    3.499474
  H      1.182937    0.613220    2.672323
  C      2.601288   -0.882352    1.885247
  H      2.586441   -2.826896    2.833616
  H      3.659680   -2.747270    1.429848
  H      1.903309   -2.831808    1.199333
  C      3.181998    2.276906    1.664687
  H      2.135318    2.587016    1.600131
  H      3.793597    3.184158    1.733044
  H      3.324478    1.710719    2.590306
  C      3.508784    2.354763   -0.833649
  H      2.465553    2.610163   -1.046808
  H      3.919372    1.854332   -1.714343
  H      4.068793    3.284623   -0.679973

 Total Charge           Charge          ....    0
 Multiplicity           Mult            ....    1
 Number of Electrons    NEL             ....  236
 Basis Dimension        Dim             .... 1766

ORBITAL ENERGIES
----------------

  NO   OCC          E(Eh)            E(eV)
   0   2.0000     -78.919875     -2147.5190
   1   2.0000     -78.917951     -2147.4666
   2   2.0000     -20.095336      -546.8219
   3   2.0000     -20.094209      -546.7912
   4   2.0000     -20.048705      -545.5530
   5   2.0000     -10.954515      -298.0875
   6   2.0000     -10.954249      -298.0803
   7   2.0000     -10.920256      -297.1553
   8   2.0000     -10.879162      -296.0371
   9   2.0000     -10.876867      -295.9746
  10   2.0000     -10.866060      -295.6805
  11   2.0000     -10.865427      -295.6633
  12   2.0000     -10.864241      -295.6310
  13   2.0000     -10.860077      -295.5177
  14   2.0000     -10.859634      -295.5057
  15   2.0000     -10.857060      -295.4356
  16   2.0000     -10.852526      -295.3122
  17   2.0000     -10.850958      -295.2696
  18   2.0000     -10.850549      -295.2584
  19   2.0000     -10.848493      -295.2025
  20   2.0000     -10.845446      -295.1196
  21   2.0000     -10.844387      -295.0908
  22   2.0000     -10.842427      -295.0374
  23   2.0000     -10.837675      -294.9081
  24   2.0000     -10.833836      -294.8037
  25   2.0000     -10.831814      -294.7487
  26   2.0000      -7.156675      -194.7430
  27   2.0000      -7.153496      -194.6565
  28   2.0000      -5.148590      -140.1003
  29   2.0000      -5.148100      -140.0869
  30   2.0000      -5.146575      -140.0454
  31   2.0000      -5.145313      -140.0111
  32   2.0000      -5.145233      -140.0089
  33   2.0000      -5.143484      -139.9613
  34   2.0000      -3.186174       -86.7002
  35   2.0000      -1.742019       -47.4027
  36   2.0000      -1.740832       -47.3704
  37   2.0000      -1.729324       -47.0573
  38   2.0000      -1.323459       -36.0131
  39   2.0000      -1.322098       -35.9761
  40   2.0000      -1.277020       -34.7495
  41   2.0000      -1.007842       -27.4248
  42   2.0000      -0.997354       -27.1394
  43   2.0000      -0.975339       -26.5403
  44   2.0000      -0.964589       -26.2478
  45   2.0000      -0.962982       -26.2041
  46   2.0000      -0.958257       -26.0755
  47   2.0000      -0.871025       -23.7018
  48   2.0000      -0.856610       -23.3095
  49   2.0000      -0.852173       -23.1888
  50   2.0000      -0.849563       -23.1178
  51   2.0000      -0.848995       -23.1023
  52   2.0000      -0.838885       -22.8272
  53   2.0000      -0.807137       -21.9633
  54   2.0000      -0.801145       -21.8003
  55   2.0000      -0.739732       -20.1291
  56   2.0000      -0.728634       -19.8271
  57   2.0000      -0.726326       -19.7643
  58   2.0000      -0.725507       -19.7421
  59   2.0000      -0.705346       -19.1934
  60   2.0000      -0.681334       -18.5400
  61   2.0000      -0.660240       -17.9661
  62   2.0000      -0.650103       -17.6902
  63   2.0000      -0.642313       -17.4782
  64   2.0000      -0.601289       -16.3619
  65   2.0000      -0.591145       -16.0859
  66   2.0000      -0.586597       -15.9621
  67   2.0000      -0.580429       -15.7943
  68   2.0000      -0.579363       -15.7653
  69   2.0000      -0.572905       -15.5895
  70   2.0000      -0.561873       -15.2894
  71   2.0000      -0.561199       -15.2710
  72   2.0000      -0.551232       -14.9998
  73   2.0000      -0.543879       -14.7997
  74   2.0000      -0.542501       -14.7622
  75   2.0000      -0.538568       -14.6552
  76   2.0000      -0.535671       -14.5763
  77   2.0000      -0.534591       -14.5470
  78   2.0000      -0.532628       -14.4935
  79   2.0000      -0.529080       -14.3970
  80   2.0000      -0.518640       -14.1129
  81   2.0000      -0.516465       -14.0537
  82   2.0000      -0.512419       -13.9436
  83   2.0000      -0.511513       -13.9190
  84   2.0000      -0.509459       -13.8631
  85   2.0000      -0.507161       -13.8006
  86   2.0000      -0.505428       -13.7534
  87   2.0000      -0.502400       -13.6710
  88   2.0000      -0.500609       -13.6223
  89   2.0000      -0.497486       -13.5373
  90   2.0000      -0.495443       -13.4817
  91   2.0000      -0.492287       -13.3958
  92   2.0000      -0.490958       -13.3596
  93   2.0000      -0.488406       -13.2902
  94   2.0000      -0.486665       -13.2428
  95   2.0000      -0.478504       -13.0208
  96   2.0000      -0.467354       -12.7174
  97   2.0000      -0.462598       -12.5879
  98   2.0000      -0.460116       -12.5204
  99   2.0000      -0.451351       -12.2819
 100   2.0000      -0.449251       -12.2247
 101   2.0000      -0.448549       -12.2056
 102   2.0000      -0.443579       -12.0704
 103   2.0000      -0.439180       -11.9507
 104   2.0000      -0.438439       -11.9305
 105   2.0000      -0.434970       -11.8361
 106   2.0000      -0.432937       -11.7808
 107   2.0000      -0.432520       -11.7695
 108   2.0000      -0.430731       -11.7208
 109   2.0000      -0.387778       -10.5520
 110   2.0000      -0.381739       -10.3876
 111   2.0000      -0.379429       -10.3248
 112   2.0000      -0.374631       -10.1942
 113   2.0000      -0.369577       -10.0567
 114   2.0000      -0.321722        -8.7545
 115   2.0000      -0.241288        -6.5658
 116   2.0000      -0.232058        -6.3146
 117   2.0000      -0.223891        -6.0924
 118   0.0000       0.019020         0.5176
 119   0.0000       0.035161         0.9568
 120   0.0000       0.039931         1.0866
 121   0.0000       0.044464         1.2099
 122   0.0000       0.048289         1.3140

MULLIKEN ATOMIC CHARGES
-----------------------
   0 W :   -0.064532
   1 C :    0.433056
   2 O :   -0.516350
   3 C :    0.804504
   4 O :   -0.602066
   5 C :    0.363782
   6 O :   -0.520941
   7 P :   -0.628831
   8 C :    0.874893
   9 H :    0.299493
  10 C :    1.082398
  11 H :    0.108078
  12 C :    1.096019
  13 H :    0.137255
  14 C :    1.347232
  15 P :   -0.967939
  16 H :    0.371913
  17 H :    0.207444
  18 C :    1.076263
  19 H :    0.336999
  20 C :   -0.678617
  21 H :    0.105708
  22 H :    0.029654
  23 H :    0.009762
  24 C :   -0.706115
  25 H :    0.005304
  26 H :    0.125436
  27 H :    0.076825
  28 C :   -0.763106
  29 H :    0.105301
  30 H :    0.106218
  31 H :    0.037837
  32 C :   -0.610554
  33 H :    0.116971
  34 H :   -0.015389
  35 H :    0.020452
  36 C :   -0.732943
  37 H :    0.080557
  38 H :    0.087311
  39 H :   -0.020761
  40 C :   -0.621536
  41 H :   -0.094652
  42 H :    0.092715
  43 H :    0.104900
  44 C :   -0.782567
  45 H :    0.102023
  46 H :    0.063175
  47 H :    0.103759
  48 C :   -0.567222
  49 H :    0.009989
  50 C :   -0.535585
  51 H :    0.011638
  52 H :    0.114373
  53 C :   -0.718425
  54 H :   -0.329949
  55 H :    0.049046
  56 H :    0.104460
  57 C :    1.011338
  58 H :    0.106672
  59 H :    0.059977
  60 H :    0.059063
  61 C :   -0.630993
  62 H :   -0.000312
  63 H :    0.127186
  64 H :    0.039303
  65 C :   -0.670410
  66 H :    0.025443
  67 H :    0.026359
  68 H :    0.121712
Sum of atomic charges:   -0.0000000

LOEWDIN ATOMIC CHARGES
----------------------
   0 W :    0.281849
   1 C :   -0.241036
   2 O :    0.024509
   3 C :   -0.358845
   4 O :   -0.020365
   5 C :   -0.233984
   6 O :    0.023034
   7 P :    1.072760
   8 C :   -0.367099
   9 H :   -0.030258
  10 C :   -0.348317
  11 H :   -0.038903
  12 C :   -0.347552
  13 H :   -0.034490
  14 C :   -0.352143
  15 P :    1.067800
  16 H :   -0.005824
  17 H :   -0.027388
  18 C :   -0.350306
  19 H :   -0.015426
  20 C :    0.125082
  21 H :   -0.002989
  22 H :   -0.021598
  23 H :   -0.041130
  24 C :    0.127789
  25 H :   -0.027900
  26 H :   -0.004013
  27 H :   -0.028905
  28 C :    0.125623
  29 H :   -0.026225
  30 H :   -0.004759
  31 H :   -0.024703
  32 C :    0.124622
  33 H :   -0.002338
  34 H :   -0.049328
  35 H :   -0.022375
  36 C :    0.118241
  37 H :   -0.019957
  38 H :   -0.006460
  39 H :   -0.036112
  40 C :    0.118860
  41 H :   -0.038208
  42 H :   -0.005781
  43 H :   -0.021078
  44 C :    0.114390
  45 H :   -0.020575
  46 H :   -0.016283
  47 H :   -0.005152
  48 C :    0.125452
  49 H :   -0.023771
  50 C :    0.069877
  51 H :   -0.041663
  52 H :   -0.004075
  53 C :    0.118593
  54 H :   -0.075824
  55 H :    0.009970
  56 H :   -0.033969
  57 C :   -0.335476
  58 H :   -0.004531
  59 H :   -0.021606
  60 H :   -0.022915
  61 C :    0.115361
  62 H :   -0.039241
  63 H :   -0.004195
  64 H :   -0.024658
  65 C :    0.124551
  66 H :   -0.019858
  67 H :   -0.032105
  68 H :   -0.006671

  Mayer bond orders larger than 0.100000
B(  0-W ,  1-C ) :   0.8459 B(  0-W ,  3-C ) :   1.7366 B(  0-W ,  5-C ) :   0.1912
B(  0-W ,  7-P ) :  -0.5383 B(  0-W , 10-C ) :   0.1473 B(  0-W , 14-C ) :   0.1458
B(  0-W , 18-C ) :   0.2639 B(  0-W , 54-H ) :   0.1222 B(  1-C ,  2-O ) :   1.8439
B(  1-C ,  5-C ) :   0.6019 B(  1-C ,  7-P ) :   0.4597 B(  1-C , 15-P ) :   0.2330
B(  1-C , 50-C ) :   0.1254 B(  1-C , 54-H ) :  -0.1027 B(  3-C ,  4-O ) :   1.7465
B(  3-C ,  5-C ) :   0.2540 B(  3-C , 15-P ) :   0.2007 B(  5-C ,  6-O ) :   1.9080
B(  5-C ,  7-P ) :   0.4236 B(  5-C , 15-P ) :   0.1728 B(  7-P ,  8-C ) :   1.0176
B(  7-P , 10-C ) :   0.6259 B(  7-P , 12-C ) :   0.7287 B(  7-P , 15-P ) :  -0.2933
B(  7-P , 24-C ) :   0.1802 B(  7-P , 28-C ) :   0.1606 B(  7-P , 36-C ) :   0.1425
B(  7-P , 40-C ) :   0.1837 B(  8-C ,  9-H ) :   0.8166 B(  8-C , 10-C ) :   0.2609
B(  8-C , 12-C ) :   0.2771 B(  8-C , 36-C ) :   0.6271 B(  8-C , 39-H ) :  -0.1196
B(  8-C , 40-C ) :   0.6787 B(  8-C , 41-H ) :  -0.1017 B(  9-H , 36-C ) :  -0.1033
B( 10-C , 11-H ) :   0.8883 B( 10-C , 12-C ) :   0.2617 B( 10-C , 20-C ) :   0.6200
B( 10-C , 24-C ) :   0.5253 B( 10-C , 25-H ) :  -0.1019 B( 10-C , 40-C ) :   0.1143
B( 11-H , 20-C ) :  -0.1008 B( 12-C , 13-H ) :   0.8585 B( 12-C , 28-C ) :   0.5369
B( 12-C , 32-C ) :   0.6560 B( 12-C , 36-C ) :   0.1510 B( 14-C , 17-H ) :   0.8558
B( 14-C , 18-C ) :   0.2247 B( 14-C , 44-C ) :   0.5193 B( 14-C , 46-H ) :  -0.1016
B( 14-C , 48-C ) :   0.6207 B( 14-C , 57-C ) :   0.2082 B( 15-P , 16-H ) :  -0.2352
B( 15-P , 18-C ) :   0.5868 B( 15-P , 44-C ) :   0.1855 B( 15-P , 48-C ) :   0.1337
B( 15-P , 50-C ) :   0.5284 B( 15-P , 57-C ) :   0.6823 B( 15-P , 61-C ) :   0.2755
B( 15-P , 65-C ) :   0.3081 B( 16-H , 57-C ) :   0.8453 B( 18-C , 19-H ) :   0.7904
B( 18-C , 57-C ) :   0.1919 B( 18-C , 61-C ) :   0.4494 B( 18-C , 62-H ) :  -0.1133
B( 18-C , 65-C ) :   0.5727 B( 19-H , 61-C ) :  -0.1333 B( 20-C , 21-H ) :   1.0328
B( 20-C , 22-H ) :   1.0549 B( 20-C , 23-H ) :   1.0078 B( 20-C , 24-C ) :   0.1499
B( 24-C , 25-H ) :   1.0460 B( 24-C , 26-H ) :   1.0648 B( 24-C , 27-H ) :   0.9773
B( 28-C , 29-H ) :   0.9575 B( 28-C , 30-H ) :   1.0717 B( 28-C , 31-H ) :   1.0563
B( 28-C , 32-C ) :   0.1298 B( 32-C , 33-H ) :   1.0181 B( 32-C , 34-H ) :   1.0038
B( 32-C , 35-H ) :   1.0349 B( 36-C , 37-H ) :   0.9673 B( 36-C , 38-H ) :   1.0592
B( 36-C , 39-H ) :   1.0206 B( 40-C , 41-H ) :   1.0374 B( 40-C , 42-H ) :   1.0298
B( 40-C , 43-H ) :   0.9390 B( 44-C , 45-H ) :   0.9816 B( 44-C , 46-H ) :   1.0797
B( 44-C , 47-H ) :   1.0660 B( 48-C , 49-H ) :   1.0251 B( 48-C , 51-H ) :   1.0557
B( 48-C , 52-H ) :   1.0341 B( 50-C , 53-C ) :   0.1834 B( 50-C , 54-H ) :   1.3972
B( 50-C , 55-H ) :   0.8771 B( 50-C , 56-H ) :   0.9578 B( 50-C , 57-C ) :   0.6867
B( 53-C , 57-C ) :   0.5474 B( 53-C , 58-H ) :   1.0274 B( 53-C , 59-H ) :   1.0569
B( 53-C , 60-H ) :   1.0332 B( 54-H , 56-H ) :   0.1126 B( 61-C , 62-H ) :   1.0522
B( 61-C , 63-H ) :   1.0241 B( 61-C , 64-H ) :   1.0382 B( 61-C , 65-C ) :   0.1468
B( 65-C , 66-H ) :   1.0719 B( 65-C , 67-H ) :   0.9858 B( 65-C , 68-H ) :   1.0255

MP2 TOTAL ENERGY:    -1799.687073380 Eh
Dispersion correction           -0.107567219
FINAL SINGLE POINT ENERGY     -1799.794640598719

DIPOLE MOMENT
-------------
                                X             Y             Z
Electronic contribution:     17.80566      16.05142     -19.86062
Nuclear contribution   :    -17.42159     -16.73751      21.91193
                        -----------------------------------------
Total Dipole Moment    :      0.38407      -0.68608       2.05131
                        -----------------------------------------
Magnitude (a.u.)       :      2.19683
Magnitude (Debye)      :      5.58390

Rotational constants in cm-1:     0.007992     0.003859     0.003786
Rotational constants in MHz :   239.602072   115.683770   113.510152

                             ****ORCA TERMINATED NORMALLY****
TOTAL RUN TIME: 0 days 0 hours 14 minutes 50 seconds 549 msec
