                         Program Version 4.2.0 -  RELEASE  -
|  1> #
|  2> # MOR02_bz ri-DSD-BLYP/2013-D3BJ/Def2-TZVPPD
|  3> #
|  4> ! rijk ri-dsd-blyp/2013 d3bj def2-tzvppd def2/jk def2-tzvppd/c grid4 nofinalgrid
|  5>
|  6> *xyz 0 1
|  7> C        1.391947    0.103893   -0.000005
|  8> C        0.785946   -1.153510   -0.000002
|  9> C       -0.605997   -1.257403   -0.000005
| 10> C       -1.391947   -0.103892   -0.000002
| 11> C       -0.785947    1.153509   -0.000006
| 12> C        0.605998    1.257403   -0.000002
| 13> H        2.475503    0.184769    0.000018
| 14> H        1.397775   -2.051448    0.000027
| 15> H       -1.077745   -2.236217    0.000018
| 16> H       -2.475502   -0.184774    0.000031
| 17> H       -1.397773    2.051449    0.000014
| 18> H        1.077742    2.236219    0.000031
| 19> *
| 20>
| 21> %maxcore 5000
| 22>
| 23> %pal
| 24> nprocs = 24
| 25> end
| 26>
| 27>
| 28>                          ****END OF INPUT****

CARTESIAN COORDINATES (ANGSTROEM)
---------------------------------
  C      1.391947    0.103893   -0.000005
  C      0.785946   -1.153510   -0.000002
  C     -0.605997   -1.257403   -0.000005
  C     -1.391947   -0.103892   -0.000002
  C     -0.785947    1.153509   -0.000006
  C      0.605998    1.257403   -0.000002
  H      2.475503    0.184769    0.000018
  H      1.397775   -2.051448    0.000027
  H     -1.077745   -2.236217    0.000018
  H     -2.475502   -0.184774    0.000031
  H     -1.397773    2.051449    0.000014
  H      1.077742    2.236219    0.000031

 Total Charge           Charge          ....    0
 Multiplicity           Mult            ....    1
 Number of Electrons    NEL             ....   42
 Basis Dimension        Dim             ....  324

ORBITAL ENERGIES
----------------

  NO   OCC          E(Eh)            E(eV)
   0   2.0000     -10.860180      -295.5205
   1   2.0000     -10.859717      -295.5079
   2   2.0000     -10.859717      -295.5079
   3   2.0000     -10.858713      -295.4806
   4   2.0000     -10.858713      -295.4806
   5   2.0000     -10.858224      -295.4673
   6   2.0000      -1.046153       -28.4673
   7   2.0000      -0.920640       -25.0519
   8   2.0000      -0.920638       -25.0518
   9   2.0000      -0.747305       -20.3352
  10   2.0000      -0.747303       -20.3352
  11   2.0000      -0.645661       -17.5693
  12   2.0000      -0.580783       -15.8039
  13   2.0000      -0.560965       -15.2646
  14   2.0000      -0.531231       -14.4555
  15   2.0000      -0.531229       -14.4555
  16   2.0000      -0.458358       -12.4726
  17   2.0000      -0.444057       -12.0834
  18   2.0000      -0.444054       -12.0833
  19   2.0000      -0.312069        -8.4918
  20   2.0000      -0.312068        -8.4918
  21   0.0000       0.050095         1.3631
  22   0.0000       0.066378         1.8062
  23   0.0000       0.066389         1.8065
  24   0.0000       0.066925         1.8211
  25   0.0000       0.066929         1.8212

MULLIKEN ATOMIC CHARGES
-----------------------
   0 C :    0.023905
   1 C :    0.023621
   2 C :    0.024763
   3 C :    0.023366
   4 C :    0.024868
   5 C :    0.024174
   6 H :   -0.024231
   7 H :   -0.024078
   8 H :   -0.024056
   9 H :   -0.024248
  10 H :   -0.024077
  11 H :   -0.024007
Sum of atomic charges:    0.0000000

LOEWDIN ATOMIC CHARGES
----------------------
   0 C :    0.003320
   1 C :    0.003322
   2 C :    0.003326
   3 C :    0.003320
   4 C :    0.003323
   5 C :    0.003326
   6 H :   -0.003322
   7 H :   -0.003322
   8 H :   -0.003325
   9 H :   -0.003322
  10 H :   -0.003322
  11 H :   -0.003325

  Mayer bond orders larger than 0.100000
B(  0-C ,  1-C ) :   1.2417 B(  0-C ,  5-C ) :   1.2410 B(  0-C ,  6-H ) :   1.0950
B(  1-C ,  2-C ) :   1.2420 B(  1-C ,  7-H ) :   1.0945 B(  2-C ,  3-C ) :   1.2418
B(  2-C ,  8-H ) :   1.0946 B(  3-C ,  4-C ) :   1.2408 B(  3-C ,  9-H ) :   1.0950
B(  4-C ,  5-C ) :   1.2424 B(  4-C , 10-H ) :   1.0948 B(  5-C , 11-H ) :   1.0947

MP2 TOTAL ENERGY:     -232.023130435 Eh
Dispersion correction           -0.011355801
FINAL SINGLE POINT ENERGY      -232.034486236928

DIPOLE MOMENT
-------------
                                X             Y             Z
Electronic contribution:     -0.00000       0.00000      -0.00010
Nuclear contribution   :      0.00000      -0.00000       0.00014
                        -----------------------------------------
Total Dipole Moment    :     -0.00000      -0.00000       0.00004
                        -----------------------------------------
Magnitude (a.u.)       :      0.00004
Magnitude (Debye)      :      0.00011

Rotational constants in cm-1:     0.189759     0.189757     0.094879
Rotational constants in MHz :  5688.823776  5688.770067  2844.398461

                             ****ORCA TERMINATED NORMALLY****
TOTAL RUN TIME: 0 days 0 hours 0 minutes 7 seconds 355 msec
