                         Program Version 4.2.0 -  RELEASE  -
|  1> #
|  2> # MOR07_ed01 ri-DSD-BLYP/2013-D3BJ/Def2-TZVPPD
|  3> #
|  4> ! rijk ri-dsd-blyp/2013 d3bj def2-tzvppd def2/jk def2-tzvppd/c grid4 nofinalgrid
|  5>
|  6> *xyz 0 1
|  7> Cr      -0.000046    0.000041   -0.405569
|  8> O       -2.277907    2.043130   -0.317819
|  9> C       -1.422280    1.275470   -0.391359
| 10> C       -0.000325   -0.000192    1.429559
| 11> O       -0.000571   -0.000422    2.587655
| 12> C        1.422359   -1.275089   -0.391211
| 13> O        2.278285   -2.042429   -0.317709
| 14> C        1.275390    1.422211   -0.390822
| 15> O        2.043071    2.277781   -0.316760
| 16> C       -1.275267   -1.422351   -0.391135
| 17> O       -2.042647   -2.278220   -0.317434
| 18> *
| 19>
| 20> %maxcore 5000
| 21>
| 22> %pal
| 23> nprocs = 24
| 24> end
| 25>
| 26>
| 27>                          ****END OF INPUT****

CARTESIAN COORDINATES (ANGSTROEM)
---------------------------------
  Cr    -0.000046    0.000041   -0.405569
  O     -2.277907    2.043130   -0.317819
  C     -1.422280    1.275470   -0.391359
  C     -0.000325   -0.000192    1.429559
  O     -0.000571   -0.000422    2.587655
  C      1.422359   -1.275089   -0.391211
  O      2.278285   -2.042429   -0.317709
  C      1.275390    1.422211   -0.390822
  O      2.043071    2.277781   -0.316760
  C     -1.275267   -1.422351   -0.391135
  O     -2.042647   -2.278220   -0.317434

 Total Charge           Charge          ....    0
 Multiplicity           Mult            ....    1
 Number of Electrons    NEL             ....   94
 Basis Dimension        Dim             ....  452

ORBITAL ENERGIES
----------------

  NO   OCC          E(Eh)            E(eV)
   0   2.0000    -218.869017     -5955.7287
   1   2.0000     -25.847673      -703.3509
   2   2.0000     -21.905602      -596.0817
   3   2.0000     -21.905602      -596.0817
   4   2.0000     -21.902921      -596.0088
   5   2.0000     -20.151361      -548.3464
   6   2.0000     -20.151349      -548.3461
   7   2.0000     -20.151347      -548.3460
   8   2.0000     -20.151344      -548.3460
   9   2.0000     -20.126127      -547.6597
  10   2.0000     -11.003846      -299.4299
  11   2.0000     -11.003839      -299.4297
  12   2.0000     -11.003837      -299.4296
  13   2.0000     -11.003833      -299.4295
  14   2.0000     -10.985733      -298.9370
  15   2.0000      -3.274836       -89.1128
  16   2.0000      -2.103073       -57.2275
  17   2.0000      -2.103071       -57.2275
  18   2.0000      -2.099714       -57.1361
  19   2.0000      -1.384195       -37.6659
  20   2.0000      -1.383528       -37.6477
  21   2.0000      -1.383522       -37.6475
  22   2.0000      -1.383079       -37.6355
  23   2.0000      -1.358825       -36.9755
  24   2.0000      -0.767369       -20.8812
  25   2.0000      -0.731652       -19.9093
  26   2.0000      -0.731647       -19.9091
  27   2.0000      -0.727268       -19.7900
  28   2.0000      -0.713662       -19.4197
  29   2.0000      -0.641459       -17.4550
  30   2.0000      -0.603423       -16.4200
  31   2.0000      -0.599860       -16.3230
  32   2.0000      -0.599854       -16.3229
  33   2.0000      -0.593772       -16.1574
  34   2.0000      -0.590902       -16.0793
  35   2.0000      -0.590899       -16.0792
  36   2.0000      -0.580757       -15.8032
  37   2.0000      -0.574985       -15.6461
  38   2.0000      -0.565960       -15.4006
  39   2.0000      -0.565959       -15.4005
  40   2.0000      -0.562611       -15.3094
  41   2.0000      -0.539947       -14.6927
  42   2.0000      -0.536479       -14.5983
  43   2.0000      -0.536470       -14.5981
  44   2.0000      -0.322652        -8.7798
  45   2.0000      -0.322649        -8.7797
  46   2.0000      -0.312629        -8.5071
  47   0.0000      -0.045134        -1.2282
  48   0.0000       0.028316         0.7705
  49   0.0000       0.033614         0.9147
  50   0.0000       0.033615         0.9147
  51   0.0000       0.039739         1.0814

MULLIKEN ATOMIC CHARGES
-----------------------
   0 Cr:   -0.234164
   1 O :   -0.311895
   2 C :    0.366852
   3 C :    0.362988
   4 O :   -0.348791
   5 C :    0.366719
   6 O :   -0.311891
   7 C :    0.366925
   8 O :   -0.311866
   9 C :    0.366979
  10 O :   -0.311857
Sum of atomic charges:   -0.0000000

LOEWDIN ATOMIC CHARGES
----------------------
   0 Cr:   -0.303221
   1 O :    0.117266
   2 C :   -0.037905
   3 C :   -0.122445
   4 O :    0.108389
   5 C :   -0.037962
   6 O :    0.117268
   7 C :   -0.037967
   8 O :    0.117263
   9 C :   -0.037948
  10 O :    0.117263

  Mayer bond orders larger than 0.100000
B(  0-Cr,  2-C ) :   0.9060 B(  0-Cr,  3-C ) :   1.2688 B(  0-Cr,  4-O ) :   0.1011
B(  0-Cr,  5-C ) :   0.9058 B(  0-Cr,  7-C ) :   0.9054 B(  0-Cr,  9-C ) :   0.9054
B(  1-O ,  2-C ) :   2.1902 B(  3-C ,  4-O ) :   2.0586 B(  5-C ,  6-O ) :   2.1900
B(  7-C ,  8-O ) :   2.1900 B(  9-C , 10-O ) :   2.1900

MP2 TOTAL ENERGY:    -1610.597136732 Eh
Dispersion correction           -0.019126789
FINAL SINGLE POINT ENERGY     -1610.616263521928

DIPOLE MOMENT
-------------
                                X             Y             Z
Electronic contribution:     -0.00035       0.00033      -2.50620
Nuclear contribution   :      0.00017      -0.00015       1.50310
                        -----------------------------------------
Total Dipole Moment    :     -0.00018       0.00018      -1.00311
                        -----------------------------------------
Magnitude (a.u.)       :      1.00311
Magnitude (Debye)      :      2.54969

Rotational constants in cm-1:     0.031146     0.031144     0.021766
Rotational constants in MHz :   933.731625   933.679962   652.524637

                             ****ORCA TERMINATED NORMALLY****
TOTAL RUN TIME: 0 days 0 hours 0 minutes 26 seconds 248 msec
