                         Program Version 4.2.0 -  RELEASE  -
|  1> #
|  2> # MOR06_cod ri-DSD-BLYP/2013-D3BJ/Def2-TZVPPD
|  3> #
|  4> ! rijk ri-dsd-blyp/2013 d3bj def2-tzvppd def2/jk def2-tzvppd/c grid4 nofinalgrid
|  5>
|  6> *xyz 0 1
|  7> C        1.191389    1.227675   -0.516531
|  8> C        0.040474   -1.675611   -0.245785
|  9> C       -0.040358    1.675615   -0.245809
| 10> H        1.773340    1.813957   -1.228847
| 11> C       -1.191236   -1.227682   -0.516688
| 12> H        0.358706   -2.571437   -0.779467
| 13> H       -0.358419    2.571431   -0.779611
| 14> H       -1.772889   -1.813647   -1.229501
| 15> C       -1.080136    1.086431    0.676864
| 16> H       -1.767105    1.885380    0.980109
| 17> H       -0.630813    0.710792    1.597907
| 18> C        1.924335    0.021333    0.009175
| 19> H        2.698129    0.353800    0.719005
| 20> H        2.474959   -0.423127   -0.831863
| 21> C        1.079920   -1.086274    0.677130
| 22> H        0.630295   -0.710168    1.597840
| 23> H        1.766727   -1.885140    0.980948
| 24> C       -1.924342   -0.021538    0.009255
| 25> H       -2.697754   -0.354225    0.719400
| 26> H       -2.475456    0.422687   -0.831583
| 27> *
| 28>
| 29> %maxcore 5000
| 30>
| 31> %pal
| 32> nprocs = 24
| 33> end
| 34>
| 35>
| 36>                          ****END OF INPUT****

CARTESIAN COORDINATES (ANGSTROEM)
---------------------------------
  C      1.191389    1.227675   -0.516531
  C      0.040474   -1.675611   -0.245785
  C     -0.040358    1.675615   -0.245809
  H      1.773340    1.813957   -1.228847
  C     -1.191236   -1.227682   -0.516688
  H      0.358706   -2.571437   -0.779467
  H     -0.358419    2.571431   -0.779611
  H     -1.772889   -1.813647   -1.229501
  C     -1.080136    1.086431    0.676864
  H     -1.767105    1.885380    0.980109
  H     -0.630813    0.710792    1.597907
  C      1.924335    0.021333    0.009175
  H      2.698129    0.353800    0.719005
  H      2.474959   -0.423127   -0.831863
  C      1.079920   -1.086274    0.677130
  H      0.630295   -0.710168    1.597840
  H      1.766727   -1.885140    0.980948
  C     -1.924342   -0.021538    0.009255
  H     -2.697754   -0.354225    0.719400
  H     -2.475456    0.422687   -0.831583

 Total Charge           Charge          ....    0
 Multiplicity           Mult            ....    1
 Number of Electrons    NEL             ....   60
 Basis Dimension        Dim             ....  500

ORBITAL ENERGIES
----------------

  NO   OCC          E(Eh)            E(eV)
   0   2.0000     -10.852270      -295.3053
   1   2.0000     -10.852269      -295.3053
   2   2.0000     -10.848572      -295.2046
   3   2.0000     -10.848565      -295.2045
   4   2.0000     -10.846645      -295.1522
   5   2.0000     -10.846639      -295.1520
   6   2.0000     -10.843757      -295.0736
   7   2.0000     -10.843754      -295.0736
   8   2.0000      -1.011219       -27.5167
   9   2.0000      -0.950993       -25.8778
  10   2.0000      -0.946959       -25.7681
  11   2.0000      -0.849320       -23.1112
  12   2.0000      -0.826902       -22.5012
  13   2.0000      -0.738881       -20.1060
  14   2.0000      -0.666871       -18.1465
  15   2.0000      -0.641060       -17.4441
  16   2.0000      -0.593822       -16.1587
  17   2.0000      -0.563477       -15.3330
  18   2.0000      -0.548424       -14.9234
  19   2.0000      -0.540528       -14.7085
  20   2.0000      -0.518539       -14.1102
  21   2.0000      -0.504694       -13.7334
  22   2.0000      -0.468259       -12.7420
  23   2.0000      -0.467773       -12.7288
  24   2.0000      -0.455455       -12.3936
  25   2.0000      -0.425935       -11.5903
  26   2.0000      -0.410046       -11.1579
  27   2.0000      -0.399679       -10.8758
  28   2.0000      -0.311598        -8.4790
  29   2.0000      -0.306090        -8.3291
  30   0.0000       0.048546         1.3210
  31   0.0000       0.059526         1.6198
  32   0.0000       0.067341         1.8325
  33   0.0000       0.067344         1.8325
  34   0.0000       0.080292         2.1849

MULLIKEN ATOMIC CHARGES
-----------------------
   0 C :   -0.240681
   1 C :   -0.097292
   2 C :   -0.093851
   3 H :   -0.053809
   4 C :   -0.236541
   5 H :   -0.052804
   6 H :   -0.052894
   7 H :   -0.053805
   8 C :    0.273383
   9 H :    0.025171
  10 H :    0.024579
  11 C :    0.021580
  12 H :    0.048145
  13 H :    0.048846
  14 C :    0.272418
  15 H :    0.024198
  16 H :    0.025468
  17 C :    0.020740
  18 H :    0.048171
  19 H :    0.048978
Sum of atomic charges:    0.0000000

LOEWDIN ATOMIC CHARGES
----------------------
   0 C :    0.010310
   1 C :    0.014786
   2 C :    0.014813
   3 H :   -0.006471
   4 C :    0.010316
   5 H :   -0.005553
   6 H :   -0.005568
   7 H :   -0.006474
   8 C :   -0.025895
   9 H :    0.009909
  10 H :   -0.006059
  11 C :   -0.021053
  12 H :    0.015666
  13 H :    0.014340
  14 C :   -0.025879
  15 H :   -0.006053
  16 H :    0.009912
  17 C :   -0.021048
  18 H :    0.015674
  19 H :    0.014328

  Mayer bond orders larger than 0.100000
B(  0-C ,  2-C ) :   1.3340 B(  0-C ,  3-H ) :   1.1344 B(  0-C ,  8-C ) :  -0.1027
B(  0-C , 11-C ) :   1.0648 B(  1-C ,  4-C ) :   1.3352 B(  1-C ,  5-H ) :   1.0930
B(  1-C , 11-C ) :   0.2534 B(  1-C , 14-C ) :   0.8662 B(  1-C , 17-C ) :  -0.2166
B(  2-C ,  6-H ) :   1.0926 B(  2-C ,  8-C ) :   0.8659 B(  2-C , 11-C ) :  -0.2169
B(  2-C , 17-C ) :   0.2528 B(  4-C ,  7-H ) :   1.1340 B(  4-C , 14-C ) :  -0.1020
B(  4-C , 17-C ) :   1.0638 B(  8-C ,  9-H ) :   1.0270 B(  8-C , 10-H ) :   0.9716
B(  8-C , 14-C ) :   0.1685 B(  8-C , 17-C ) :   0.7875 B( 11-C , 12-H ) :   0.9645
B( 11-C , 13-H ) :   0.9600 B( 11-C , 14-C ) :   0.7875 B( 14-C , 15-H ) :   0.9719
B( 14-C , 16-H ) :   1.0272 B( 17-C , 18-H ) :   0.9645 B( 17-C , 19-H ) :   0.9603

MP2 TOTAL ENERGY:     -311.719291774 Eh
Dispersion correction           -0.018387370
FINAL SINGLE POINT ENERGY      -311.737679143860

DIPOLE MOMENT
-------------
                                X             Y             Z
Electronic contribution:      0.00031      -0.00032      -0.85860
Nuclear contribution   :     -0.00029       0.00032       0.95237
                        -----------------------------------------
Total Dipole Moment    :      0.00002      -0.00000       0.09377
                        -----------------------------------------
Magnitude (a.u.)       :      0.09377
Magnitude (Debye)      :      0.23835

Rotational constants in cm-1:     0.087291     0.074989     0.047810
Rotational constants in MHz :  2616.931187  2248.128417  1433.302108

                             ****ORCA TERMINATED NORMALLY****
TOTAL RUN TIME: 0 days 0 hours 0 minutes 15 seconds 863 msec
