                         Program Version 4.2.0 -  RELEASE  -
|  1> #
|  2> # MOR13_ed24 ri-DSD-BLYP/2013-D3BJ/Def2-TZVPPD
|  3> #
|  4> ! rijk ri-dsd-blyp/2013 d3bj def2-tzvppd def2/jk def2-tzvppd/c grid4 nofinalgrid
|  5>
|  6> *xyz 0 1
|  7> Ru       0.947158   -0.829727   -0.745491
|  8> Cl       0.759536   -0.029843   -2.889353
|  9> Cl       0.924249   -2.813196    0.406526
| 10> P       -0.892858    0.059346    0.070519
| 11> C        2.105770    0.298407    0.120511
| 12> C       -1.060848    0.304387    1.904454
| 13> C       -0.839571   -1.004781    2.681683
| 14> C       -1.204393   -0.821649    4.161076
| 15> C       -0.398097    0.318884    4.794081
| 16> C       -0.569062    1.619286    3.999752
| 17> C       -0.203235    1.422010    2.520494
| 18> C       -1.361193    1.675223   -0.723442
| 19> C       -0.190670    2.668218   -0.863157
| 20> C       -0.617010    3.874515   -1.709852
| 21> C       -1.846047    4.572418   -1.115292
| 22> C       -3.005112    3.584426   -0.940399
| 23> C       -2.585621    2.369196   -0.098214
| 24> C       -2.266825   -1.149912   -0.318948
| 25> C       -3.572387   -1.071522    0.495585
| 26> C       -4.464103   -2.278800    0.161919
| 27> C       -4.771803   -2.353480   -1.338652
| 28> C       -3.481398   -2.368379   -2.166970
| 29> C       -2.587234   -1.168835   -1.825450
| 30> H        1.784946    1.202955    0.645761
| 31> H       -2.115821    0.600966    2.014947
| 32> H        0.212402   -1.294098    2.586311
| 33> H       -1.418447   -1.824644    2.245913
| 34> H       -1.028300   -1.758851    4.701667
| 35> H       -2.278352   -0.600113    4.247046
| 36> H        0.665500    0.042496    4.804792
| 37> H       -0.699682    0.468438    5.837587
| 38> H        0.050942    2.415093    4.429614
| 39> H       -1.613622    1.955784    4.068877
| 40> H       -0.334942    2.362910    1.978268
| 41> H        0.854749    1.145201    2.447640
| 42> H       -1.618911    1.357234   -1.743817
| 43> H        0.662106    2.166051   -1.325328
| 44> H        0.125060    3.019280    0.127484
| 45> H       -0.846735    3.527698   -2.726710
| 46> H        0.219033    4.578695   -1.795316
| 47> H       -2.156025    5.410629   -1.750528
| 48> H       -1.583038    4.996180   -0.135073
| 49> H       -3.336384    3.234608   -1.928191
| 50> H       -3.864727    4.078543   -0.471441
| 51> H       -2.338056    2.702879    0.918040
| 52> H       -3.425897    1.674720   -0.010060
| 53> H       -1.782812   -2.105972   -0.070582
| 54> H       -4.113822   -0.149509    0.251918
| 55> H       -3.369403   -1.053503    1.570362
| 56> H       -5.393534   -2.221008    0.741223
| 57> H       -3.947864   -3.196972    0.475160
| 58> H       -5.374229   -1.479434   -1.625752
| 59> H       -5.376744   -3.241409   -1.557196
| 60> H       -3.714322   -2.363052   -3.238224
| 61> H       -2.925851   -3.294401   -1.964642
| 62> H       -1.666731   -1.193589   -2.417765
| 63> H       -3.111760   -0.241279   -2.093787
| 64> C        3.546496    0.126586    0.028364
| 65> C        4.389877    1.228237    0.286046
| 66> C        5.770146    1.113346    0.161104
| 67> C        6.339467   -0.106460   -0.212258
| 68> C        5.519417   -1.212931   -0.453677
| 69> C        4.139965   -1.102236   -0.332827
| 70> H        3.943201    2.177101    0.573360
| 71> H        6.405205    1.972855    0.357301
| 72> H        5.961339   -2.166857   -0.726887
| 73> H        3.508028   -1.975261   -0.480581
| 74> H        7.417884   -0.197821   -0.305099
| 75> *
| 76>
| 77> %maxcore 5000
| 78>
| 79> %pal
| 80> nprocs = 24
| 81> end
| 82>
| 83>
| 84>                          ****END OF INPUT****

CARTESIAN COORDINATES (ANGSTROEM)
---------------------------------
  Ru     0.947158   -0.829727   -0.745491
  Cl     0.759536   -0.029843   -2.889353
  Cl     0.924249   -2.813196    0.406526
  P     -0.892858    0.059346    0.070519
  C      2.105770    0.298407    0.120511
  C     -1.060848    0.304387    1.904454
  C     -0.839571   -1.004781    2.681683
  C     -1.204393   -0.821649    4.161076
  C     -0.398097    0.318884    4.794081
  C     -0.569062    1.619286    3.999752
  C     -0.203235    1.422010    2.520494
  C     -1.361193    1.675223   -0.723442
  C     -0.190670    2.668218   -0.863157
  C     -0.617010    3.874515   -1.709852
  C     -1.846047    4.572418   -1.115292
  C     -3.005112    3.584426   -0.940399
  C     -2.585621    2.369196   -0.098214
  C     -2.266825   -1.149912   -0.318948
  C     -3.572387   -1.071522    0.495585
  C     -4.464103   -2.278800    0.161919
  C     -4.771803   -2.353480   -1.338652
  C     -3.481398   -2.368379   -2.166970
  C     -2.587234   -1.168835   -1.825450
  H      1.784946    1.202955    0.645761
  H     -2.115821    0.600966    2.014947
  H      0.212402   -1.294098    2.586311
  H     -1.418447   -1.824644    2.245913
  H     -1.028300   -1.758851    4.701667
  H     -2.278352   -0.600113    4.247046
  H      0.665500    0.042496    4.804792
  H     -0.699682    0.468438    5.837587
  H      0.050942    2.415093    4.429614
  H     -1.613622    1.955784    4.068877
  H     -0.334942    2.362910    1.978268
  H      0.854749    1.145201    2.447640
  H     -1.618911    1.357234   -1.743817
  H      0.662106    2.166051   -1.325328
  H      0.125060    3.019280    0.127484
  H     -0.846735    3.527698   -2.726710
  H      0.219033    4.578695   -1.795316
  H     -2.156025    5.410629   -1.750528
  H     -1.583038    4.996180   -0.135073
  H     -3.336384    3.234608   -1.928191
  H     -3.864727    4.078543   -0.471441
  H     -2.338056    2.702879    0.918040
  H     -3.425897    1.674720   -0.010060
  H     -1.782812   -2.105972   -0.070582
  H     -4.113822   -0.149509    0.251918
  H     -3.369403   -1.053503    1.570362
  H     -5.393534   -2.221008    0.741223
  H     -3.947864   -3.196972    0.475160
  H     -5.374229   -1.479434   -1.625752
  H     -5.376744   -3.241409   -1.557196
  H     -3.714322   -2.363052   -3.238224
  H     -2.925851   -3.294401   -1.964642
  H     -1.666731   -1.193589   -2.417765
  H     -3.111760   -0.241279   -2.093787
  C      3.546496    0.126586    0.028364
  C      4.389877    1.228237    0.286046
  C      5.770146    1.113346    0.161104
  C      6.339467   -0.106460   -0.212258
  C      5.519417   -1.212931   -0.453677
  C      4.139965   -1.102236   -0.332827
  H      3.943201    2.177101    0.573360
  H      6.405205    1.972855    0.357301
  H      5.961339   -2.166857   -0.726887
  H      3.508028   -1.975261   -0.480581
  H      7.417884   -0.197821   -0.305099

 Total Charge           Charge          ....    0
 Multiplicity           Mult            ....    1
 Number of Electrons    NEL             ....  254
 Basis Dimension        Dim             .... 1794

ORBITAL ENERGIES
----------------

  NO   OCC          E(Eh)            E(eV)
   0   2.0000    -103.580881     -2818.5791
   1   2.0000    -103.580065     -2818.5569
   2   2.0000     -78.943636     -2148.1656
   3   2.0000     -10.894573      -296.4564
   4   2.0000     -10.877111      -295.9812
   5   2.0000     -10.874914      -295.9215
   6   2.0000     -10.874095      -295.8992
   7   2.0000     -10.871511      -295.8289
   8   2.0000     -10.870827      -295.8103
   9   2.0000     -10.869344      -295.7699
  10   2.0000     -10.867860      -295.7295
  11   2.0000     -10.867073      -295.7081
  12   2.0000     -10.866922      -295.7040
  13   2.0000     -10.860263      -295.5228
  14   2.0000     -10.859435      -295.5002
  15   2.0000     -10.857434      -295.4458
  16   2.0000     -10.853679      -295.3436
  17   2.0000     -10.851884      -295.2948
  18   2.0000     -10.849710      -295.2356
  19   2.0000     -10.849602      -295.2327
  20   2.0000     -10.848542      -295.2038
  21   2.0000     -10.848370      -295.1992
  22   2.0000     -10.847876      -295.1857
  23   2.0000     -10.847779      -295.1831
  24   2.0000     -10.847348      -295.1714
  25   2.0000     -10.845970      -295.1339
  26   2.0000     -10.845257      -295.1144
  27   2.0000     -10.844586      -295.0962
  28   2.0000     -10.097563      -274.7687
  29   2.0000     -10.096716      -274.7456
  30   2.0000      -7.669896      -208.7085
  31   2.0000      -7.669051      -208.6855
  32   2.0000      -7.668443      -208.6689
  33   2.0000      -7.668204      -208.6624
  34   2.0000      -7.667608      -208.6462
  35   2.0000      -7.667343      -208.6390
  36   2.0000      -7.179719      -195.3701
  37   2.0000      -5.171461      -140.7226
  38   2.0000      -5.171384      -140.7205
  39   2.0000      -5.170331      -140.6919
  40   2.0000      -3.377671       -91.9111
  41   2.0000      -2.128249       -57.9126
  42   2.0000      -2.122970       -57.7690
  43   2.0000      -2.118923       -57.6588
  44   2.0000      -1.062622       -28.9154
  45   2.0000      -1.038665       -28.2635
  46   2.0000      -1.024209       -27.8702
  47   2.0000      -1.022685       -27.8287
  48   2.0000      -0.960067       -26.1247
  49   2.0000      -0.949796       -25.8453
  50   2.0000      -0.933506       -25.4020
  51   2.0000      -0.926574       -25.2134
  52   2.0000      -0.924744       -25.1636
  53   2.0000      -0.920046       -25.0357
  54   2.0000      -0.919530       -25.0217
  55   2.0000      -0.916868       -24.9493
  56   2.0000      -0.914286       -24.8790
  57   2.0000      -0.913263       -24.8512
  58   2.0000      -0.830943       -22.6111
  59   2.0000      -0.812529       -22.1100
  60   2.0000      -0.770776       -20.9739
  61   2.0000      -0.764438       -20.8014
  62   2.0000      -0.762582       -20.7509
  63   2.0000      -0.760719       -20.7002
  64   2.0000      -0.755604       -20.5610
  65   2.0000      -0.751839       -20.4586
  66   2.0000      -0.723212       -19.6796
  67   2.0000      -0.704117       -19.1600
  68   2.0000      -0.699814       -19.0429
  69   2.0000      -0.698397       -19.0043
  70   2.0000      -0.667830       -18.1726
  71   2.0000      -0.641555       -17.4576
  72   2.0000      -0.604067       -16.4375
  73   2.0000      -0.598343       -16.2817
  74   2.0000      -0.593970       -16.1627
  75   2.0000      -0.588411       -16.0115
  76   2.0000      -0.579143       -15.7593
  77   2.0000      -0.561641       -15.2830
  78   2.0000      -0.561024       -15.2663
  79   2.0000      -0.559305       -15.2195
  80   2.0000      -0.557069       -15.1586
  81   2.0000      -0.552681       -15.0392
  82   2.0000      -0.551870       -15.0171
  83   2.0000      -0.546150       -14.8615
  84   2.0000      -0.542968       -14.7749
  85   2.0000      -0.541908       -14.7461
  86   2.0000      -0.535330       -14.5671
  87   2.0000      -0.525893       -14.3103
  88   2.0000      -0.496526       -13.5112
  89   2.0000      -0.490081       -13.3358
  90   2.0000      -0.488977       -13.3057
  91   2.0000      -0.487025       -13.2526
  92   2.0000      -0.484663       -13.1884
  93   2.0000      -0.483883       -13.1671
  94   2.0000      -0.481663       -13.1067
  95   2.0000      -0.471242       -12.8231
  96   2.0000      -0.470026       -12.7901
  97   2.0000      -0.461485       -12.5576
  98   2.0000      -0.457869       -12.4593
  99   2.0000      -0.455305       -12.3895
 100   2.0000      -0.451428       -12.2840
 101   2.0000      -0.450118       -12.2483
 102   2.0000      -0.445122       -12.1124
 103   2.0000      -0.444163       -12.0863
 104   2.0000      -0.438477       -11.9316
 105   2.0000      -0.436982       -11.8909
 106   2.0000      -0.434385       -11.8202
 107   2.0000      -0.428281       -11.6541
 108   2.0000      -0.426575       -11.6077
 109   2.0000      -0.422801       -11.5050
 110   2.0000      -0.419507       -11.4154
 111   2.0000      -0.415242       -11.2993
 112   2.0000      -0.413258       -11.2453
 113   2.0000      -0.400200       -10.8900
 114   2.0000      -0.396775       -10.7968
 115   2.0000      -0.395743       -10.7687
 116   2.0000      -0.386417       -10.5149
 117   2.0000      -0.375233       -10.2106
 118   2.0000      -0.371161       -10.0998
 119   2.0000      -0.369525       -10.0553
 120   2.0000      -0.367471        -9.9994
 121   2.0000      -0.363553        -9.8928
 122   2.0000      -0.344750        -9.3811
 123   2.0000      -0.327108        -8.9011
 124   2.0000      -0.322110        -8.7650
 125   2.0000      -0.298950        -8.1348
 126   2.0000      -0.271796        -7.3959
 127   0.0000      -0.008955        -0.2437
 128   0.0000       0.025701         0.6994
 129   0.0000       0.032339         0.8800
 130   0.0000       0.039667         1.0794
 131   0.0000       0.044627         1.2144

MULLIKEN ATOMIC CHARGES
-----------------------
   0 Ru:   -1.685118
   1 Cl:   -0.672225
   2 Cl:   -0.673178
   3 P :    0.707685
   4 C :    1.554811
   5 C :    0.378542
   6 C :   -0.303027
   7 C :   -0.326215
   8 C :   -0.196290
   9 C :   -0.397007
  10 C :    0.340893
  11 C :    0.428088
  12 C :   -0.101226
  13 C :   -0.316838
  14 C :   -0.162410
  15 C :   -0.364387
  16 C :    0.439083
  17 C :    0.557149
  18 C :    0.357346
  19 C :   -0.241927
  20 C :   -0.250255
  21 C :   -0.282815
  22 C :   -0.323557
  23 H :    0.025599
  24 H :    0.491492
  25 H :    0.081747
  26 H :    0.077698
  27 H :    0.037584
  28 H :    0.090293
  29 H :    0.076541
  30 H :    0.070477
  31 H :    0.044197
  32 H :    0.106568
  33 H :   -0.223787
  34 H :    0.056093
  35 H :    0.644755
  36 H :   -0.153596
  37 H :    0.108820
  38 H :    0.083178
  39 H :    0.032471
  40 H :    0.057377
  41 H :    0.054773
  42 H :    0.090949
  43 H :    0.042173
  44 H :    0.091297
  45 H :   -0.444063
  46 H :    0.494715
  47 H :    0.054209
  48 H :   -0.385241
  49 H :    0.028362
  50 H :    0.121807
  51 H :    0.075029
  52 H :    0.054082
  53 H :    0.025271
  54 H :    0.087873
  55 H :    0.157295
  56 H :    0.054992
  57 C :    0.154652
  58 C :   -0.316226
  59 C :   -0.160181
  60 C :    0.059454
  61 C :   -0.275962
  62 C :    0.084664
  63 H :   -0.122641
  64 H :   -0.050193
  65 H :   -0.057339
  66 H :   -0.079285
  67 H :   -0.015093
Sum of atomic charges:   -0.0000000

LOEWDIN ATOMIC CHARGES
----------------------
   0 Ru:    0.393732
   1 Cl:   -0.064418
   2 Cl:   -0.063625
   3 P :    1.020910
   4 C :   -0.110192
   5 C :   -0.272495
   6 C :   -0.058665
   7 C :   -0.004177
   8 C :   -0.013579
   9 C :   -0.004004
  10 C :   -0.024063
  11 C :   -0.278517
  12 C :   -0.055922
  13 C :   -0.003059
  14 C :   -0.015089
  15 C :   -0.005190
  16 C :   -0.013750
  17 C :   -0.279575
  18 C :   -0.018593
  19 C :   -0.003967
  20 C :   -0.015303
  21 C :   -0.005071
  22 C :   -0.044545
  23 H :   -0.072737
  24 H :   -0.008481
  25 H :   -0.023698
  26 H :   -0.009448
  27 H :    0.015694
  28 H :    0.019228
  29 H :    0.021199
  30 H :    0.011671
  31 H :    0.014081
  32 H :    0.021034
  33 H :   -0.011637
  34 H :    0.003721
  35 H :   -0.025012
  36 H :   -0.054165
  37 H :   -0.000096
  38 H :    0.024079
  39 H :    0.015004
  40 H :    0.011642
  41 H :    0.018866
  42 H :    0.021887
  43 H :    0.013439
  44 H :    0.013159
  45 H :   -0.009129
  46 H :   -0.043633
  47 H :    0.003657
  48 H :   -0.004795
  49 H :    0.013704
  50 H :    0.023181
  51 H :    0.018854
  52 H :    0.011681
  53 H :    0.014842
  54 H :    0.023426
  55 H :   -0.046534
  56 H :    0.017015
  57 C :   -0.235390
  58 C :    0.048652
  59 C :    0.018579
  60 C :    0.025394
  61 C :    0.026743
  62 C :    0.039416
  63 H :    0.008976
  64 H :    0.000111
  65 H :    0.003645
  66 H :   -0.039676
  67 H :    0.001007

  Mayer bond orders larger than 0.100000
B(  0-Ru,  1-Cl) :   1.7015 B(  0-Ru,  2-Cl) :   1.6574 B(  0-Ru,  3-P ) :  -0.3168
B(  0-Ru,  4-C ) :   1.5785 B(  0-Ru,  5-C ) :   0.2273 B(  0-Ru, 11-C ) :   0.2026
B(  0-Ru, 22-C ) :   0.2042 B(  1-Cl,  3-P ) :  -0.8602 B(  1-Cl,  4-C ) :  -0.1075
B(  1-Cl, 36-H ) :   0.1514 B(  1-Cl, 55-H ) :  -0.1369 B(  1-Cl, 57-C ) :  -0.2124
B(  2-Cl,  3-P ) :  -0.6381 B(  2-Cl,  4-C ) :  -0.3253 B(  2-Cl, 46-H ) :  -0.1093
B(  3-P ,  4-C ) :  -0.1075 B(  3-P ,  5-C ) :   0.6881 B(  3-P ,  6-C ) :   0.3348
B(  3-P , 10-C ) :  -0.2770 B(  3-P , 11-C ) :   0.6617 B(  3-P , 12-C ) :   0.4985
B(  3-P , 17-C ) :   0.5113 B(  3-P , 18-C ) :   0.2183 B(  3-P , 21-C ) :  -0.1454
B(  3-P , 22-C ) :   0.2122 B(  3-P , 24-H ) :   0.2354 B(  3-P , 35-H ) :  -0.3458
B(  3-P , 36-H ) :  -0.1414 B(  3-P , 48-H ) :   0.1051 B(  4-C , 23-H ) :   0.9245
B(  4-C , 57-C ) :  -0.3730 B(  4-C , 58-C ) :  -0.5710 B(  4-C , 59-C ) :  -0.1831
B(  4-C , 60-C ) :   0.1292 B(  4-C , 61-C ) :  -0.3465 B(  4-C , 62-C ) :   0.4352
B(  4-C , 63-H ) :  -0.1041 B(  5-C ,  6-C ) :   1.4221 B(  5-C ,  7-C ) :   0.4192
B(  5-C ,  8-C ) :   0.1370 B(  5-C ,  9-C ) :   0.4001 B(  5-C , 10-C ) :   1.2126
B(  5-C , 17-C ) :   0.1237 B(  5-C , 24-H ) :   0.6244 B(  5-C , 34-H ) :  -0.1108
B(  6-C ,  7-C ) :   0.8871 B(  6-C ,  8-C ) :   0.1150 B(  6-C ,  9-C ) :   0.1441
B(  6-C , 17-C ) :   0.1280 B(  6-C , 24-H ) :  -0.2299 B(  6-C , 25-H ) :   0.9220
B(  6-C , 26-H ) :   0.8282 B(  7-C ,  8-C ) :   1.0295 B(  7-C , 25-H ) :  -0.1622
B(  7-C , 27-H ) :   1.0110 B(  7-C , 28-H ) :   0.9762 B(  8-C ,  9-C ) :   1.0575
B(  8-C , 24-H ) :  -0.1030 B(  8-C , 29-H ) :   1.0006 B(  8-C , 30-H ) :   0.9987
B(  9-C , 10-C ) :   0.7083 B(  9-C , 31-H ) :   0.9555 B(  9-C , 32-H ) :   0.9821
B(  9-C , 33-H ) :   0.2442 B(  9-C , 34-H ) :  -0.2244 B( 10-C , 24-H ) :  -0.2275
B( 10-C , 32-H ) :  -0.1316 B( 10-C , 33-H ) :   0.8560 B( 10-C , 34-H ) :   1.0432
B( 11-C , 12-C ) :   0.8578 B( 11-C , 13-C ) :   0.4369 B( 11-C , 15-C ) :   0.3993
B( 11-C , 16-C ) :   1.4140 B( 11-C , 17-C ) :   0.2184 B( 11-C , 35-H ) :   0.7841
B( 11-C , 37-H ) :  -0.1043 B( 12-C , 13-C ) :   0.9371 B( 12-C , 14-C ) :   0.1231
B( 12-C , 35-H ) :  -0.1506 B( 12-C , 36-H ) :   0.8502 B( 12-C , 37-H ) :   0.9931
B( 13-C , 14-C ) :   1.0495 B( 13-C , 15-C ) :   0.1210 B( 13-C , 16-C ) :   0.1150
B( 13-C , 37-H ) :  -0.1192 B( 13-C , 38-H ) :   0.9815 B( 13-C , 39-H ) :   0.9601
B( 14-C , 15-C ) :   1.0421 B( 14-C , 40-H ) :   1.0000 B( 14-C , 41-H ) :   1.0046
B( 15-C , 16-C ) :   0.8107 B( 15-C , 42-H ) :   0.9451 B( 15-C , 43-H ) :   0.9753
B( 15-C , 44-H ) :  -0.1764 B( 15-C , 45-H ) :   0.2752 B( 16-C , 17-C ) :   0.1064
B( 16-C , 35-H ) :  -0.2633 B( 16-C , 44-H ) :   1.0169 B( 16-C , 45-H ) :   0.7017
B( 17-C , 18-C ) :   1.0348 B( 17-C , 19-C ) :   0.3697 B( 17-C , 21-C ) :   0.3333
B( 17-C , 22-C ) :   1.1261 B( 17-C , 46-H ) :   0.9034 B( 17-C , 47-H ) :  -0.1168
B( 18-C , 19-C ) :   0.8682 B( 18-C , 20-C ) :   0.1918 B( 18-C , 46-H ) :  -0.1405
B( 18-C , 47-H ) :   1.0475 B( 18-C , 48-H ) :   0.7980 B( 19-C , 20-C ) :   1.0394
B( 19-C , 47-H ) :  -0.1684 B( 19-C , 48-H ) :   0.1829 B( 19-C , 49-H ) :   0.9666
B( 19-C , 50-H ) :   0.9696 B( 20-C , 21-C ) :   0.9972 B( 20-C , 22-C ) :   0.1676
B( 20-C , 51-H ) :   1.0123 B( 20-C , 52-H ) :   0.9899 B( 21-C , 22-C ) :   1.1376
B( 21-C , 53-H ) :   0.9884 B( 21-C , 54-H ) :   0.9733 B( 21-C , 56-H ) :  -0.1091
B( 22-C , 46-H ) :  -0.2309 B( 22-C , 55-H ) :   0.8106 B( 22-C , 56-H ) :   1.0338
B( 57-C , 58-C ) :   1.3099 B( 57-C , 59-C ) :   0.1202 B( 57-C , 60-C ) :  -0.1459
B( 57-C , 61-C ) :   0.1619 B( 57-C , 62-C ) :   0.2530 B( 57-C , 63-H ) :  -0.1124
B( 57-C , 66-H ) :  -0.1822 B( 58-C , 59-C ) :   1.1712 B( 58-C , 62-C ) :  -0.2947
B( 58-C , 63-H ) :   1.2958 B( 59-C , 60-C ) :   1.1433 B( 59-C , 63-H ) :  -0.1801
B( 59-C , 64-H ) :   1.1223 B( 59-C , 67-H ) :  -0.1199 B( 60-C , 61-C ) :   1.1087
B( 60-C , 64-H ) :  -0.1229 B( 60-C , 65-H ) :  -0.1218 B( 60-C , 67-H ) :   1.1142
B( 61-C , 62-C ) :   1.3081 B( 61-C , 65-H ) :   1.1283 B( 61-C , 66-H ) :  -0.1103
B( 61-C , 67-H ) :  -0.1176 B( 62-C , 66-H ) :   1.1327

MP2 TOTAL ENERGY:    -2331.280987984 Eh
Dispersion correction           -0.103771250
FINAL SINGLE POINT ENERGY     -2331.384759234008

DIPOLE MOMENT
-------------
                                X             Y             Z
Electronic contribution:     94.77143     -73.69675     -66.16593
Nuclear contribution   :    -95.45400      75.19378      67.48059
                        -----------------------------------------
Total Dipole Moment    :     -0.68257       1.49702       1.31466
                        -----------------------------------------
Magnitude (a.u.)       :      2.10602
Magnitude (Debye)      :      5.35308

Rotational constants in cm-1:     0.004948     0.003136     0.003087
Rotational constants in MHz :   148.341837    94.004802    92.554473

                             ****ORCA TERMINATED NORMALLY****
TOTAL RUN TIME: 0 days 0 hours 16 minutes 16 seconds 664 msec
