                         Program Version 4.2.0 -  RELEASE  -
|  1> #
|  2> # MOR12_ed18 ri-DSD-BLYP/2013-D3BJ/Def2-TZVPPD
|  3> #
|  4> ! rijk ri-dsd-blyp/2013 d3bj def2-tzvppd def2/jk def2-tzvppd/c grid4 nofinalgrid
|  5>
|  6> *xyz 0 1
|  7> Ir       0.000009    0.119441   -0.001134
|  8> P        2.313164   -0.026854    0.000864
|  9> C        3.266155    1.538041    0.001301
| 10> C        2.990776   -0.938546    1.437922
| 11> H        4.076753   -1.056364    1.355244
| 12> H        4.080827   -1.059585   -1.345638
| 13> H        2.508332   -1.918605    1.474823
| 14> H        2.511934   -1.920062   -1.470843
| 15> H        3.000883    2.123603    0.885753
| 16> H        2.748975   -0.395301    2.355327
| 17> C        2.995346   -0.940504   -1.432774
| 18> H        4.343510    1.342437    0.003886
| 19> H        2.757870   -0.397739   -2.351580
| 20> H        3.004825    2.121649   -0.885628
| 21> P       -2.313239   -0.026297    0.000821
| 22> C       -3.266059    1.538685   -0.001751
| 23> C       -2.995240   -0.942628   -1.431183
| 24> H       -2.509974   -1.915937    1.477317
| 25> H       -4.077346   -1.051885    1.357522
| 26> H       -2.748166   -0.391240    2.356043
| 27> C       -2.991181   -0.935299    1.439450
| 28> H       -2.510085   -1.921339   -1.468610
| 29> H       -4.080420   -1.063528   -1.342825
| 30> H       -4.343438    1.343207   -0.001601
| 31> H       -3.002541    2.121837   -0.888321
| 32> H       -2.759672   -0.400400   -2.350803
| 33> H       -3.002807    2.124611    0.883073
| 34> C        0.000649    1.940082   -0.001490
| 35> O        0.001240    3.110505   -0.001979
| 36> Cl      -0.000683   -2.266357   -0.002005
| 37> *
| 38>
| 39> %maxcore 5000
| 40>
| 41> %pal
| 42> nprocs = 24
| 43> end
| 44>
| 45>
| 46>                          ****END OF INPUT****

CARTESIAN COORDINATES (ANGSTROEM)
---------------------------------
  Ir     0.000009    0.119441   -0.001134
  P      2.313164   -0.026854    0.000864
  C      3.266155    1.538041    0.001301
  C      2.990776   -0.938546    1.437922
  H      4.076753   -1.056364    1.355244
  H      4.080827   -1.059585   -1.345638
  H      2.508332   -1.918605    1.474823
  H      2.511934   -1.920062   -1.470843
  H      3.000883    2.123603    0.885753
  H      2.748975   -0.395301    2.355327
  C      2.995346   -0.940504   -1.432774
  H      4.343510    1.342437    0.003886
  H      2.757870   -0.397739   -2.351580
  H      3.004825    2.121649   -0.885628
  P     -2.313239   -0.026297    0.000821
  C     -3.266059    1.538685   -0.001751
  C     -2.995240   -0.942628   -1.431183
  H     -2.509974   -1.915937    1.477317
  H     -4.077346   -1.051885    1.357522
  H     -2.748166   -0.391240    2.356043
  C     -2.991181   -0.935299    1.439450
  H     -2.510085   -1.921339   -1.468610
  H     -4.080420   -1.063528   -1.342825
  H     -4.343438    1.343207   -0.001601
  H     -3.002541    2.121837   -0.888321
  H     -2.759672   -0.400400   -2.350803
  H     -3.002807    2.124611    0.883073
  C      0.000649    1.940082   -0.001490
  O      0.001240    3.110505   -0.001979
  Cl    -0.000683   -2.266357   -0.002005

 Total Charge           Charge          ....    0
 Multiplicity           Mult            ....    1
 Number of Electrons    NEL             ....  132
 Basis Dimension        Dim             ....  811

ORBITAL ENERGIES
----------------

  NO   OCC          E(Eh)            E(eV)
   0   2.0000    -103.566235     -2818.1805
   1   2.0000     -78.937198     -2147.9904
   2   2.0000     -78.937187     -2147.9901
   3   2.0000     -20.091662      -546.7219
   4   2.0000     -10.968158      -298.4588
   5   2.0000     -10.858756      -295.4818
   6   2.0000     -10.858754      -295.4817
   7   2.0000     -10.852311      -295.3064
   8   2.0000     -10.852300      -295.3061
   9   2.0000     -10.852291      -295.3058
  10   2.0000     -10.852249      -295.3047
  11   2.0000     -10.082802      -274.3670
  12   2.0000      -7.655105      -208.3060
  13   2.0000      -7.653774      -208.2698
  14   2.0000      -7.653526      -208.2630
  15   2.0000      -7.172805      -195.1819
  16   2.0000      -7.172794      -195.1817
  17   2.0000      -5.164875      -140.5434
  18   2.0000      -5.164865      -140.5431
  19   2.0000      -5.164662      -140.5376
  20   2.0000      -5.164651      -140.5373
  21   2.0000      -5.163103      -140.4952
  22   2.0000      -5.163093      -140.4949
  23   2.0000      -4.001739      -108.8929
  24   2.0000      -2.257878       -61.4400
  25   2.0000      -2.246965       -61.1430
  26   2.0000      -2.223831       -60.5135
  27   2.0000      -1.321590       -35.9623
  28   2.0000      -0.952137       -25.9090
  29   2.0000      -0.948790       -25.8179
  30   2.0000      -0.909368       -24.7452
  31   2.0000      -0.866078       -23.5672
  32   2.0000      -0.865298       -23.5460
  33   2.0000      -0.861235       -23.4354
  34   2.0000      -0.861183       -23.4340
  35   2.0000      -0.706242       -19.2178
  36   2.0000      -0.681305       -18.5393
  37   2.0000      -0.669745       -18.2247
  38   2.0000      -0.586489       -15.9592
  39   2.0000      -0.563528       -15.3344
  40   2.0000      -0.559772       -15.2322
  41   2.0000      -0.549878       -14.9629
  42   2.0000      -0.546502       -14.8711
  43   2.0000      -0.543496       -14.7893
  44   2.0000      -0.539316       -14.6755
  45   2.0000      -0.537624       -14.6295
  46   2.0000      -0.537055       -14.6140
  47   2.0000      -0.516526       -14.0554
  48   2.0000      -0.513371       -13.9695
  49   2.0000      -0.513183       -13.9644
  50   2.0000      -0.511490       -13.9184
  51   2.0000      -0.496869       -13.5205
  52   2.0000      -0.496490       -13.5102
  53   2.0000      -0.443034       -12.0556
  54   2.0000      -0.440160       -11.9774
  55   2.0000      -0.436906       -11.8888
  56   2.0000      -0.434068       -11.8116
  57   2.0000      -0.432098       -11.7580
  58   2.0000      -0.387475       -10.5437
  59   2.0000      -0.384643       -10.4667
  60   2.0000      -0.373191       -10.1550
  61   2.0000      -0.334065        -9.0904
  62   2.0000      -0.312991        -8.5169
  63   2.0000      -0.307336        -8.3630
  64   2.0000      -0.295953        -8.0533
  65   2.0000      -0.280695        -7.6381
  66   0.0000       0.026240         0.7140
  67   0.0000       0.036201         0.9851
  68   0.0000       0.036229         0.9858
  69   0.0000       0.047302         1.2872
  70   0.0000       0.064798         1.7633

MULLIKEN ATOMIC CHARGES
-----------------------
   0 Ir:    0.075974
   1 P :    0.724711
   2 C :   -0.350030
   3 C :   -0.368314
   4 H :    0.123059
   5 H :    0.123077
   6 H :    0.104838
   7 H :    0.104687
   8 H :    0.072572
   9 H :    0.048669
  10 C :   -0.368434
  11 H :    0.110894
  12 H :    0.048469
  13 H :    0.072513
  14 P :    0.724517
  15 C :   -0.350185
  16 C :   -0.368515
  17 H :    0.104647
  18 H :    0.123046
  19 H :    0.048653
  20 C :   -0.367917
  21 H :    0.104893
  22 H :    0.123019
  23 H :    0.110905
  24 H :    0.072478
  25 H :    0.048434
  26 H :    0.072580
  27 C :    0.327271
  28 O :   -0.544178
  29 Cl:   -0.752335
Sum of atomic charges:   -0.0000000

LOEWDIN ATOMIC CHARGES
----------------------
   0 Ir:    0.320941
   1 P :    0.740183
   2 C :   -0.024562
   3 C :   -0.027673
   4 H :   -0.048081
   5 H :   -0.048070
   6 H :   -0.080665
   7 H :   -0.080752
   8 H :   -0.050088
   9 H :   -0.052008
  10 C :   -0.027645
  11 H :   -0.048543
  12 H :   -0.051987
  13 H :   -0.050021
  14 P :    0.740157
  15 C :   -0.024558
  16 C :   -0.027760
  17 H :   -0.080486
  18 H :   -0.048088
  19 H :   -0.052039
  20 C :   -0.027623
  21 H :   -0.081098
  22 H :   -0.048068
  23 H :   -0.048546
  24 H :   -0.050070
  25 H :   -0.051959
  26 H :   -0.050053
  27 C :   -0.452571
  28 O :   -0.011509
  29 Cl:   -0.156760

  Mayer bond orders larger than 0.100000
B(  0-Ir,  1-P ) :   0.8122 B(  0-Ir, 14-P ) :   0.8117 B(  0-Ir, 27-C ) :   1.7912
B(  0-Ir, 28-O ) :   0.1485 B(  0-Ir, 29-Cl) :   0.3507 B(  1-P ,  2-C ) :   0.7591
B(  1-P ,  3-C ) :   0.8496 B(  1-P , 10-C ) :   0.8500 B(  1-P , 29-Cl) :   0.1568
B(  2-C ,  8-H ) :   1.0087 B(  2-C , 11-H ) :   1.0083 B(  2-C , 13-H ) :   1.0087
B(  3-C ,  4-H ) :   0.9894 B(  3-C ,  6-H ) :   0.9983 B(  3-C ,  9-H ) :   1.0225
B(  5-H , 10-C ) :   0.9895 B(  7-H , 10-C ) :   0.9983 B( 10-C , 12-H ) :   1.0225
B( 14-P , 15-C ) :   0.7593 B( 14-P , 16-C ) :   0.8496 B( 14-P , 20-C ) :   0.8497
B( 14-P , 29-Cl) :   0.1569 B( 15-C , 23-H ) :   1.0083 B( 15-C , 24-H ) :   1.0087
B( 15-C , 26-H ) :   1.0086 B( 16-C , 21-H ) :   0.9984 B( 16-C , 22-H ) :   0.9895
B( 16-C , 25-H ) :   1.0227 B( 17-H , 20-C ) :   0.9983 B( 18-H , 20-C ) :   0.9894
B( 19-H , 20-C ) :   1.0224 B( 27-C , 28-O ) :   1.9877

MP2 TOTAL ENERGY:    -1599.201093422 Eh
Dispersion correction           -0.046197924
FINAL SINGLE POINT ENERGY     -1599.247291346243

DIPOLE MOMENT
-------------
                                X             Y             Z
Electronic contribution:      0.00113      16.18049      -0.17778
Nuclear contribution   :     -0.00090     -15.69990       0.18198
                        -----------------------------------------
Total Dipole Moment    :      0.00023       0.48058       0.00420
                        -----------------------------------------
Magnitude (a.u.)       :      0.48060
Magnitude (Debye)      :      1.22160

Rotational constants in cm-1:     0.025294     0.012430     0.009680
Rotational constants in MHz :   758.298673   372.651784   290.199928

                             ****ORCA TERMINATED NORMALLY****
TOTAL RUN TIME: 0 days 0 hours 1 minutes 52 seconds 873 msec
