                         Program Version 4.2.0 -  RELEASE  -
|  1> #
|  2> # MOR11_ed11 ri-DSD-BLYP/2013-D3BJ/Def2-TZVPPD
|  3> #
|  4> ! rijk ri-dsd-blyp/2013 d3bj def2-tzvppd def2/jk def2-tzvppd/c grid4 nofinalgrid
|  5>
|  6> *xyz 0 1
|  7> C       -0.215143    2.474912    0.000943
|  8> C        0.405007    3.719049    0.001069
|  9> C        1.797844    3.776033    0.000678
| 10> C        2.518886    2.587780    0.000166
| 11> H       -1.296303    2.357179    0.001183
| 12> H       -0.198474    4.620568    0.001502
| 13> H        2.316345    4.729851    0.000789
| 14> H        3.602578    2.611029   -0.000041
| 15> N        0.477795    1.324684    0.000439
| 16> C        1.835277    1.367244    0.000057
| 17> C        2.509992    0.059887   -0.000357
| 18> N        1.694840   -1.036421    0.000876
| 19> C        2.257001   -2.260308    0.000535
| 20> C        4.472096   -1.347919   -0.002398
| 21> C        3.629983   -2.459360   -0.001050
| 22> H        1.562821   -3.092687    0.001515
| 23> H        4.023772   -3.470102   -0.001337
| 24> C        3.900751   -0.081941   -0.002040
| 25> H        4.532932    0.798314   -0.003223
| 26> H        5.551118   -1.464051   -0.003853
| 27> Pd      -0.336917   -0.654572    0.001071
| 28> C       -0.858975   -2.626404    0.002691
| 29> H       -0.413078   -3.060930    0.907026
| 30> H       -0.415091   -3.062278   -0.901950
| 31> H       -1.933716   -2.807010    0.004117
| 32> I       -2.840745   -0.024929   -0.001244
| 33> *
| 34>
| 35> %maxcore 5000
| 36>
| 37> %pal
| 38> nprocs = 24
| 39> end
| 40>
| 41>
| 42>                          ****END OF INPUT****

CARTESIAN COORDINATES (ANGSTROEM)
---------------------------------
  C     -0.215143    2.474912    0.000943
  C      0.405007    3.719049    0.001069
  C      1.797844    3.776033    0.000678
  C      2.518886    2.587780    0.000166
  H     -1.296303    2.357179    0.001183
  H     -0.198474    4.620568    0.001502
  H      2.316345    4.729851    0.000789
  H      3.602578    2.611029   -0.000041
  N      0.477795    1.324684    0.000439
  C      1.835277    1.367244    0.000057
  C      2.509992    0.059887   -0.000357
  N      1.694840   -1.036421    0.000876
  C      2.257001   -2.260308    0.000535
  C      4.472096   -1.347919   -0.002398
  C      3.629983   -2.459360   -0.001050
  H      1.562821   -3.092687    0.001515
  H      4.023772   -3.470102   -0.001337
  C      3.900751   -0.081941   -0.002040
  H      4.532932    0.798314   -0.003223
  H      5.551118   -1.464051   -0.003853
  Pd    -0.336917   -0.654572    0.001071
  C     -0.858975   -2.626404    0.002691
  H     -0.413078   -3.060930    0.907026
  H     -0.415091   -3.062278   -0.901950
  H     -1.933716   -2.807010    0.004117
  I     -2.840745   -0.024929   -0.001244

 Total Charge           Charge          ....    0
 Multiplicity           Mult            ....    1
 Number of Electrons    NEL             ....  134
 Basis Dimension        Dim             ....  783

ORBITAL ENERGIES
----------------

  NO   OCC          E(Eh)            E(eV)
   0   2.0000     -15.194454      -413.4621
   1   2.0000     -15.178102      -413.0171
   2   2.0000     -10.957651      -298.1728
   3   2.0000     -10.950825      -297.9871
   4   2.0000     -10.938001      -297.6381
   5   2.0000     -10.925469      -297.2971
   6   2.0000     -10.922434      -297.2145
   7   2.0000     -10.915256      -297.0192
   8   2.0000     -10.911368      -296.9134
   9   2.0000     -10.906431      -296.7791
  10   2.0000     -10.905196      -296.7455
  11   2.0000     -10.897214      -296.5283
  12   2.0000     -10.802370      -293.9474
  13   2.0000      -7.325926      -199.3486
  14   2.0000      -5.237501      -142.5196
  15   2.0000      -5.233566      -142.4126
  16   2.0000      -5.233310      -142.4056
  17   2.0000      -3.824926      -104.0815
  18   2.0000      -2.416837       -65.7655
  19   2.0000      -2.415422       -65.7270
  20   2.0000      -2.397968       -65.2520
  21   2.0000      -2.060263       -56.0626
  22   2.0000      -2.058579       -56.0168
  23   2.0000      -2.058407       -56.0121
  24   2.0000      -2.054410       -55.9033
  25   2.0000      -2.054378       -55.9025
  26   2.0000      -1.213098       -33.0101
  27   2.0000      -1.181845       -32.1596
  28   2.0000      -1.037613       -28.2349
  29   2.0000      -1.025567       -27.9071
  30   2.0000      -1.019669       -27.7466
  31   2.0000      -0.956421       -26.0255
  32   2.0000      -0.853744       -23.2316
  33   2.0000      -0.842337       -22.9211
  34   2.0000      -0.805300       -21.9133
  35   2.0000      -0.795975       -21.6596
  36   2.0000      -0.787519       -21.4295
  37   2.0000      -0.733696       -19.9649
  38   2.0000      -0.710421       -19.3315
  39   2.0000      -0.665943       -18.1212
  40   2.0000      -0.664005       -18.0685
  41   2.0000      -0.643464       -17.5095
  42   2.0000      -0.623088       -16.9551
  43   2.0000      -0.598971       -16.2988
  44   2.0000      -0.583976       -15.8908
  45   2.0000      -0.576701       -15.6928
  46   2.0000      -0.570117       -15.5137
  47   2.0000      -0.563583       -15.3359
  48   2.0000      -0.526768       -14.3341
  49   2.0000      -0.520234       -14.1563
  50   2.0000      -0.506460       -13.7815
  51   2.0000      -0.480811       -13.0835
  52   2.0000      -0.474438       -12.9101
  53   2.0000      -0.467537       -12.7223
  54   2.0000      -0.460852       -12.5404
  55   2.0000      -0.420074       -11.4308
  56   2.0000      -0.402679       -10.9575
  57   2.0000      -0.395229       -10.7547
  58   2.0000      -0.381771       -10.3885
  59   2.0000      -0.360420        -9.8075
  60   2.0000      -0.350989        -9.5509
  61   2.0000      -0.346518        -9.4292
  62   2.0000      -0.328362        -8.9352
  63   2.0000      -0.319987        -8.7073
  64   2.0000      -0.290130        -7.8948
  65   2.0000      -0.257141        -6.9972
  66   2.0000      -0.256091        -6.9686
  67   0.0000      -0.032140        -0.8746
  68   0.0000       0.005000         0.1361
  69   0.0000       0.018950         0.5156
  70   0.0000       0.023528         0.6402
  71   0.0000       0.032869         0.8944

MULLIKEN ATOMIC CHARGES
-----------------------
   0 C :    0.257799
   1 C :   -0.213463
   2 C :    0.034144
   3 C :    0.005909
   4 H :   -0.168453
   5 H :   -0.024003
   6 H :   -0.014912
   7 H :   -0.106046
   8 N :    0.036111
   9 C :    0.598530
  10 C :    0.003031
  11 N :    0.180394
  12 C :    0.074582
  13 C :    0.045321
  14 C :   -0.163535
  15 H :   -0.033156
  16 H :   -0.036281
  17 C :    0.023183
  18 H :   -0.101350
  19 H :   -0.009307
  20 Pd:    0.144909
  21 C :   -0.173741
  22 H :    0.029154
  23 H :    0.029597
  24 H :    0.061004
  25 I :   -0.479421
Sum of atomic charges:    0.0000000

LOEWDIN ATOMIC CHARGES
----------------------
   0 C :   -0.038961
   1 C :    0.061506
   2 C :    0.056094
   3 C :    0.078510
   4 H :   -0.090362
   5 H :    0.007034
   6 H :    0.011901
   7 H :   -0.001863
   8 N :   -0.008908
   9 C :   -0.166709
  10 C :   -0.150492
  11 N :    0.006102
  12 C :    0.001515
  13 C :    0.060243
  14 C :    0.060975
  15 H :   -0.010305
  16 H :    0.007181
  17 C :    0.080771
  18 H :   -0.000342
  19 H :    0.013235
  20 Pd:    0.438146
  21 C :   -0.078191
  22 H :   -0.115421
  23 H :   -0.115385
  24 H :   -0.169810
  25 I :    0.063537

  Mayer bond orders larger than 0.100000
B(  0-C ,  1-C ) :   1.1729 B(  0-C ,  3-C ) :  -0.1209 B(  0-C ,  4-H ) :   1.0282
B(  0-C ,  8-N ) :   1.5373 B(  0-C , 20-Pd) :  -0.1662 B(  0-C , 25-I ) :  -0.1151
B(  1-C ,  2-C ) :   1.1311 B(  1-C ,  5-H ) :   1.1130 B(  1-C ,  6-H ) :  -0.1061
B(  1-C ,  8-N ) :  -0.1363 B(  1-C , 20-Pd) :   0.1359 B(  2-C ,  3-C ) :   0.8956
B(  2-C ,  6-H ) :   1.0991 B(  2-C ,  7-H ) :  -0.1809 B(  2-C ,  8-N ) :   0.1473
B(  3-C ,  6-H ) :  -0.1004 B(  3-C ,  7-H ) :   1.2565 B(  3-C ,  8-N ) :  -0.2405
B(  3-C ,  9-C ) :   1.0844 B(  3-C , 10-C ) :  -0.4944 B(  3-C , 20-Pd) :   0.2112
B(  4-H ,  8-N ) :  -0.1241 B(  4-H , 25-I ) :   0.2688 B(  7-H ,  9-C ) :  -0.1544
B(  8-N ,  9-C ) :   1.2537 B(  8-N , 10-C ) :   0.4151 B(  8-N , 20-Pd) :   0.1890
B(  9-C , 10-C ) :   1.0075 B(  9-C , 17-C ) :  -0.5666 B(  9-C , 20-Pd) :  -0.1153
B( 10-C , 11-N ) :   1.6472 B( 10-C , 17-C ) :   1.1566 B( 10-C , 18-H ) :  -0.1460
B( 10-C , 25-I ) :  -0.1109 B( 11-N , 12-C ) :   1.7115 B( 11-N , 13-C ) :   0.1575
B( 11-N , 14-C ) :  -0.1251 B( 11-N , 17-C ) :  -0.2307 B( 11-N , 20-Pd) :   0.1897
B( 11-N , 21-C ) :  -0.1089 B( 12-C , 14-C ) :   1.1474 B( 12-C , 15-H ) :   1.1054
B( 12-C , 17-C ) :  -0.1170 B( 13-C , 14-C ) :   1.1290 B( 13-C , 17-C ) :   0.9286
B( 13-C , 18-H ) :  -0.1867 B( 13-C , 19-H ) :   1.0963 B( 14-C , 15-H ) :  -0.1247
B( 14-C , 16-H ) :   1.1141 B( 14-C , 19-H ) :  -0.1136 B( 17-C , 18-H ) :   1.2442
B( 17-C , 20-Pd) :   0.1889 B( 20-Pd, 21-C ) :   0.7107 B( 20-Pd, 25-I ) :   0.8649
B( 21-C , 22-H ) :   1.0302 B( 21-C , 23-H ) :   1.0304 B( 21-C , 24-H ) :   1.0151

MP2 TOTAL ENERGY:     -960.134740281 Eh
Dispersion correction           -0.041517732
FINAL SINGLE POINT ENERGY      -960.176258012297

DIPOLE MOMENT
-------------
                                X             Y             Z
Electronic contribution:   -213.97850     -39.73618      -0.01925
Nuclear contribution   :    218.94043      41.00073       0.01934
                        -----------------------------------------
Total Dipole Moment    :      4.96193       1.26455       0.00009
                        -----------------------------------------
Magnitude (a.u.)       :      5.12053
Magnitude (Debye)      :     13.01536

Rotational constants in cm-1:     0.017794     0.008244     0.005640
Rotational constants in MHz :   533.441148   247.152748   169.085365

                             ****ORCA TERMINATED NORMALLY****
TOTAL RUN TIME: 0 days 0 hours 2 minutes 7 seconds 285 msec
