                         Program Version 4.2.0 -  RELEASE  -
|  1> #
|  2> # MOR14_ed26 ri-DSD-BLYP/2013-D3BJ/Def2-TZVPPD
|  3> #
|  4> ! rijk ri-dsd-blyp/2013 d3bj def2-tzvppd def2/jk def2-tzvppd/c grid4 nofinalgrid
|  5>
|  6> *xyz 0 1
|  7> Ru      -0.064344   -0.175682   -0.012222
|  8> C        1.546320    1.136494   -0.983353
|  9> C        1.182588    1.622095    0.326342
| 10> C        2.076803   -0.497674    0.579629
| 11> C        2.043947   -0.183601   -0.846926
| 12> C        1.561141    0.611266    1.297590
| 13> C        1.492783    1.931783   -2.249249
| 14> H        0.696535    2.680581   -2.225612
| 15> H        1.338709    1.291322   -3.121811
| 16> H        2.442862    2.463439   -2.390633
| 17> C        2.565540   -1.075324   -1.928175
| 18> H        2.249514   -0.728507   -2.915600
| 19> H        2.192282   -2.094362   -1.786204
| 20> H        3.663236   -1.101421   -1.912436
| 21> C        2.692583   -1.723434    1.172166
| 22> H        3.783501   -1.598681    1.210971
| 23> H        2.457484   -2.606090    0.574387
| 24> H        2.333089   -1.899010    2.188816
| 25> C        1.552612    0.773239    2.786124
| 26> H        2.502734    1.205302    3.127194
| 27> H        1.421923   -0.187720    3.289969
| 28> H        0.754394    1.442873    3.118115
| 29> C        0.799428    3.031668    0.660505
| 30> H        1.693878    3.613580    0.920796
| 31> H        0.118442    3.075561    1.514596
| 32> H        0.315927    3.528553   -0.183556
| 33> Cl      -0.006885   -2.617235   -0.279085
| 34> C       -1.774511   -0.580489   -1.372668
| 35> C       -1.428717    0.775607   -1.463600
| 36> C       -2.230150    1.901113   -0.842184
| 37> C       -2.597560    1.596364    0.619137
| 38> C       -1.528383    0.747182    1.301561
| 39> C       -1.615603   -0.659023    1.435525
| 40> C       -2.738883   -1.472042    0.832207
| 41> C       -3.001399   -1.117797   -0.653050
| 42> H       -3.131417    2.097786   -1.444322
| 43> H       -3.561641    1.080890    0.673312
| 44> H       -1.631000    2.816891   -0.882167
| 45> H       -3.816216   -0.389170   -0.734954
| 46> H       -1.353755   -1.240657   -2.123162
| 47> H       -0.836828    1.063474   -2.328552
| 48> H       -3.337183   -2.018298   -1.174989
| 49> H       -2.460187   -2.525401    0.898608
| 50> H       -1.127422   -1.117347    2.293712
| 51> H       -3.660878   -1.338434    1.419672
| 52> H       -2.720080    2.533691    1.172959
| 53> H       -0.970929    1.269583    2.073632
| 54> *
| 55>
| 56> %maxcore 5000
| 57>
| 58> %pal
| 59> nprocs = 24
| 60> end
| 61>
| 62>
| 63>                          ****END OF INPUT****

CARTESIAN COORDINATES (ANGSTROEM)
---------------------------------
  Ru    -0.064344   -0.175682   -0.012222
  C      1.546320    1.136494   -0.983353
  C      1.182588    1.622095    0.326342
  C      2.076803   -0.497674    0.579629
  C      2.043947   -0.183601   -0.846926
  C      1.561141    0.611266    1.297590
  C      1.492783    1.931783   -2.249249
  H      0.696535    2.680581   -2.225612
  H      1.338709    1.291322   -3.121811
  H      2.442862    2.463439   -2.390633
  C      2.565540   -1.075324   -1.928175
  H      2.249514   -0.728507   -2.915600
  H      2.192282   -2.094362   -1.786204
  H      3.663236   -1.101421   -1.912436
  C      2.692583   -1.723434    1.172166
  H      3.783501   -1.598681    1.210971
  H      2.457484   -2.606090    0.574387
  H      2.333089   -1.899010    2.188816
  C      1.552612    0.773239    2.786124
  H      2.502734    1.205302    3.127194
  H      1.421923   -0.187720    3.289969
  H      0.754394    1.442873    3.118115
  C      0.799428    3.031668    0.660505
  H      1.693878    3.613580    0.920796
  H      0.118442    3.075561    1.514596
  H      0.315927    3.528553   -0.183556
  Cl    -0.006885   -2.617235   -0.279085
  C     -1.774511   -0.580489   -1.372668
  C     -1.428717    0.775607   -1.463600
  C     -2.230150    1.901113   -0.842184
  C     -2.597560    1.596364    0.619137
  C     -1.528383    0.747182    1.301561
  C     -1.615603   -0.659023    1.435525
  C     -2.738883   -1.472042    0.832207
  C     -3.001399   -1.117797   -0.653050
  H     -3.131417    2.097786   -1.444322
  H     -3.561641    1.080890    0.673312
  H     -1.631000    2.816891   -0.882167
  H     -3.816216   -0.389170   -0.734954
  H     -1.353755   -1.240657   -2.123162
  H     -0.836828    1.063474   -2.328552
  H     -3.337183   -2.018298   -1.174989
  H     -2.460187   -2.525401    0.898608
  H     -1.127422   -1.117347    2.293712
  H     -3.660878   -1.338434    1.419672
  H     -2.720080    2.533691    1.172959
  H     -0.970929    1.269583    2.073632

 Total Charge           Charge          ....    0
 Multiplicity           Mult            ....    1
 Number of Electrons    NEL             ....  168
 Basis Dimension        Dim             .... 1232

ORBITAL ENERGIES
----------------

  NO   OCC          E(Eh)            E(eV)
   0   2.0000    -103.537545     -2817.3998
   1   2.0000     -10.883724      -296.1612
   2   2.0000     -10.875632      -295.9410
   3   2.0000     -10.875293      -295.9318
   4   2.0000     -10.874214      -295.9024
   5   2.0000     -10.868036      -295.7343
   6   2.0000     -10.865917      -295.6766
   7   2.0000     -10.862700      -295.5891
   8   2.0000     -10.862155      -295.5743
   9   2.0000     -10.860031      -295.5165
  10   2.0000     -10.858509      -295.4750
  11   2.0000     -10.856783      -295.4281
  12   2.0000     -10.855862      -295.4030
  13   2.0000     -10.853098      -295.3278
  14   2.0000     -10.851618      -295.2875
  15   2.0000     -10.842917      -295.0508
  16   2.0000     -10.840714      -294.9908
  17   2.0000     -10.837959      -294.9159
  18   2.0000     -10.836409      -294.8737
  19   2.0000     -10.054293      -273.5912
  20   2.0000      -7.626863      -207.5375
  21   2.0000      -7.625002      -207.4869
  22   2.0000      -7.624954      -207.4855
  23   2.0000      -3.357891       -91.3729
  24   2.0000      -2.114066       -57.5267
  25   2.0000      -2.099119       -57.1199
  26   2.0000      -2.095174       -57.0126
  27   2.0000      -1.091577       -29.7033
  28   2.0000      -1.021239       -27.7893
  29   2.0000      -0.967635       -26.3307
  30   2.0000      -0.959851       -26.1189
  31   2.0000      -0.953296       -25.9405
  32   2.0000      -0.945798       -25.7365
  33   2.0000      -0.897113       -24.4117
  34   2.0000      -0.885480       -24.0951
  35   2.0000      -0.881590       -23.9893
  36   2.0000      -0.873917       -23.7805
  37   2.0000      -0.851629       -23.1740
  38   2.0000      -0.822737       -22.3878
  39   2.0000      -0.783070       -21.3084
  40   2.0000      -0.771776       -21.0011
  41   2.0000      -0.737549       -20.0697
  42   2.0000      -0.686046       -18.6682
  43   2.0000      -0.649548       -17.6751
  44   2.0000      -0.647125       -17.6092
  45   2.0000      -0.636983       -17.3332
  46   2.0000      -0.615763       -16.7558
  47   2.0000      -0.585514       -15.9327
  48   2.0000      -0.575071       -15.6485
  49   2.0000      -0.572397       -15.5757
  50   2.0000      -0.564363       -15.3571
  51   2.0000      -0.544862       -14.8265
  52   2.0000      -0.541450       -14.7336
  53   2.0000      -0.534596       -14.5471
  54   2.0000      -0.528744       -14.3878
  55   2.0000      -0.527730       -14.3603
  56   2.0000      -0.521454       -14.1895
  57   2.0000      -0.513142       -13.9633
  58   2.0000      -0.512200       -13.9377
  59   2.0000      -0.506262       -13.7761
  60   2.0000      -0.501907       -13.6576
  61   2.0000      -0.499622       -13.5954
  62   2.0000      -0.487255       -13.2589
  63   2.0000      -0.477813       -13.0020
  64   2.0000      -0.475650       -12.9431
  65   2.0000      -0.465615       -12.6700
  66   2.0000      -0.463360       -12.6087
  67   2.0000      -0.448134       -12.1943
  68   2.0000      -0.441181       -12.0051
  69   2.0000      -0.439727       -11.9656
  70   2.0000      -0.437154       -11.8956
  71   2.0000      -0.434144       -11.8137
  72   2.0000      -0.413328       -11.2472
  73   2.0000      -0.408801       -11.1240
  74   2.0000      -0.377127       -10.2622
  75   2.0000      -0.357742        -9.7347
  76   2.0000      -0.352587        -9.5944
  77   2.0000      -0.343606        -9.3500
  78   2.0000      -0.340108        -9.2548
  79   2.0000      -0.324048        -8.8178
  80   2.0000      -0.318803        -8.6751
  81   2.0000      -0.293647        -7.9905
  82   2.0000      -0.284686        -7.7467
  83   2.0000      -0.261988        -7.1290
  84   0.0000       0.033729         0.9178
  85   0.0000       0.045607         1.2410
  86   0.0000       0.049503         1.3470
  87   0.0000       0.053500         1.4558
  88   0.0000       0.057142         1.5549

MULLIKEN ATOMIC CHARGES
-----------------------
   0 Ru:   -2.114237
   1 C :    0.353257
   2 C :    1.537781
   3 C :    0.708405
   4 C :    0.398235
   5 C :    0.639628
   6 C :   -0.836042
   7 H :    0.122187
   8 H :    0.106103
   9 H :    0.113063
  10 C :   -0.954679
  11 H :    0.097655
  12 H :    0.123131
  13 H :    0.133575
  14 C :   -0.898337
  15 H :    0.133593
  16 H :    0.097161
  17 H :    0.080720
  18 C :   -0.745772
  19 H :    0.112633
  20 H :    0.085230
  21 H :    0.085481
  22 C :   -0.711082
  23 H :    0.129800
  24 H :    0.051942
  25 H :    0.081730
  26 Cl:   -0.645725
  27 C :   -0.660795
  28 C :    1.242787
  29 C :   -0.247645
  30 C :   -0.475558
  31 C :    0.263929
  32 C :    0.697808
  33 C :   -0.200752
  34 C :    0.053787
  35 H :    0.150584
  36 H :    0.091342
  37 H :    0.027009
  38 H :    0.052411
  39 H :   -0.163342
  40 H :    0.363045
  41 H :    0.065206
  42 H :    0.135789
  43 H :   -0.226239
  44 H :    0.175620
  45 H :    0.106699
  46 H :    0.262883
Sum of atomic charges:    0.0000000

LOEWDIN ATOMIC CHARGES
----------------------
   0 Ru:    0.969521
   1 C :   -0.202706
   2 C :   -0.223289
   3 C :   -0.249600
   4 C :   -0.232191
   5 C :   -0.225962
   6 C :    0.169937
   7 H :   -0.017991
   8 H :   -0.010828
   9 H :    0.010791
  10 C :    0.160181
  11 H :   -0.015093
  12 H :   -0.048653
  13 H :    0.002095
  14 C :    0.141915
  15 H :    0.005597
  16 H :   -0.060838
  17 H :   -0.013119
  18 C :    0.180916
  19 H :    0.007173
  20 H :   -0.008591
  21 H :   -0.022033
  22 C :    0.178402
  23 H :    0.006379
  24 H :   -0.016262
  25 H :   -0.023292
  26 Cl:    0.125006
  27 C :   -0.138768
  28 C :   -0.082324
  29 C :   -0.005528
  30 C :    0.005085
  31 C :   -0.089786
  32 C :   -0.141860
  33 C :   -0.058696
  34 C :   -0.015412
  35 H :    0.023719
  36 H :    0.001464
  37 H :   -0.008326
  38 H :    0.002696
  39 H :   -0.035738
  40 H :   -0.019747
  41 H :    0.015053
  42 H :   -0.028191
  43 H :   -0.007122
  44 H :    0.018213
  45 H :    0.015627
  46 H :   -0.037823

  Mayer bond orders larger than 0.100000
B(  0-Ru,  1-C ) :   0.8055 B(  0-Ru,  2-C ) :   0.1902 B(  0-Ru,  3-C ) :   0.1760
B(  0-Ru,  4-C ) :   0.4774 B(  0-Ru,  5-C ) :   0.4900 B(  0-Ru,  6-C ) :   0.1721
B(  0-Ru, 10-C ) :   0.2453 B(  0-Ru, 14-C ) :   0.1718 B(  0-Ru, 26-Cl) :   0.7869
B(  0-Ru, 27-C ) :   1.3544 B(  0-Ru, 28-C ) :  -0.3934 B(  0-Ru, 29-C ) :   0.5353
B(  0-Ru, 30-C ) :   0.1851 B(  0-Ru, 31-C ) :   0.6871 B(  0-Ru, 32-C ) :   0.4597
B(  0-Ru, 33-C ) :   0.1924 B(  0-Ru, 34-C ) :   0.1509 B(  0-Ru, 39-H ) :   0.1613
B(  0-Ru, 40-H ) :  -0.1113 B(  1-C ,  3-C ) :  -0.3769 B(  1-C ,  4-C ) :   0.7116
B(  1-C ,  5-C ) :  -0.5488 B(  1-C ,  6-C ) :   0.9950 B(  1-C ,  8-H ) :  -0.1427
B(  1-C , 10-C ) :  -0.2253 B(  1-C , 26-Cl) :   0.1447 B(  1-C , 28-C ) :  -0.1185
B(  2-C ,  3-C ) :  -0.1192 B(  2-C ,  4-C ) :  -0.4257 B(  2-C ,  5-C ) :   0.3995
B(  2-C ,  6-C ) :  -0.4458 B(  2-C , 10-C ) :   0.1235 B(  2-C , 18-C ) :  -0.2390
B(  2-C , 22-C ) :   0.5084 B(  2-C , 23-H ) :  -0.1016 B(  2-C , 27-C ) :  -0.6074
B(  2-C , 28-C ) :   0.3141 B(  2-C , 29-C ) :  -0.1398 B(  2-C , 31-C ) :  -0.1835
B(  2-C , 40-H ) :   0.1134 B(  2-C , 46-H ) :   0.1065 B(  3-C ,  4-C ) :   0.6188
B(  3-C ,  5-C ) :   1.1292 B(  3-C , 12-H ) :   0.1307 B(  3-C , 14-C ) :   0.8562
B(  3-C , 16-H ) :  -0.1267 B(  3-C , 17-H ) :  -0.1584 B(  3-C , 22-C ) :   0.1143
B(  3-C , 27-C ) :  -0.4184 B(  3-C , 28-C ) :   0.1699 B(  4-C ,  5-C ) :  -0.6432
B(  4-C , 10-C ) :   0.6931 B(  4-C , 11-H ) :  -0.1475 B(  4-C , 12-H ) :  -0.1600
B(  4-C , 14-C ) :  -0.1921 B(  4-C , 26-Cl) :  -0.4677 B(  4-C , 27-C ) :   0.4259
B(  4-C , 28-C ) :  -0.1142 B(  4-C , 32-C ) :  -0.1633 B(  5-C , 10-C ) :   0.1284
B(  5-C , 18-C ) :   0.8548 B(  5-C , 20-H ) :  -0.1410 B(  5-C , 26-Cl) :   0.1824
B(  5-C , 27-C ) :   0.4245 B(  5-C , 28-C ) :  -0.1181 B(  5-C , 32-C ) :   0.2199
B(  6-C ,  7-H ) :   1.0087 B(  6-C ,  8-H ) :   1.0478 B(  6-C ,  9-H ) :   0.9407
B(  6-C , 10-C ) :   0.1398 B(  6-C , 22-C ) :   0.1081 B(  6-C , 27-C ) :   0.1935
B(  6-C , 28-C ) :  -0.1183 B(  6-C , 40-H ) :  -0.1347 B( 10-C , 11-H ) :   0.9931
B( 10-C , 12-H ) :   1.0121 B( 10-C , 13-H ) :   0.9712 B( 10-C , 14-C ) :   0.2287
B( 14-C , 15-H ) :   0.9322 B( 14-C , 16-H ) :   0.9998 B( 14-C , 17-H ) :   1.0161
B( 14-C , 18-C ) :   0.2031 B( 18-C , 19-H ) :   0.9782 B( 18-C , 20-H ) :   1.0219
B( 18-C , 21-H ) :   1.0096 B( 22-C , 23-H ) :   0.9586 B( 22-C , 24-H ) :   1.0597
B( 22-C , 25-H ) :   1.0306 B( 26-Cl, 32-C ) :  -0.2577 B( 26-Cl, 33-C ) :   0.1082
B( 26-Cl, 34-C ) :  -0.2098 B( 26-Cl, 39-H ) :   0.1681 B( 27-C , 28-C ) :  -0.1127
B( 27-C , 29-C ) :   0.1013 B( 27-C , 32-C ) :  -0.2512 B( 27-C , 34-C ) :   1.0050
B( 27-C , 39-H ) :   1.5490 B( 27-C , 40-H ) :  -0.3430 B( 27-C , 43-H ) :   0.1125
B( 28-C , 29-C ) :   1.1083 B( 28-C , 32-C ) :   0.1525 B( 28-C , 37-H ) :   0.1642
B( 28-C , 39-H ) :  -0.4554 B( 28-C , 40-H ) :   1.0735 B( 28-C , 43-H ) :  -0.1061
B( 29-C , 30-C ) :   0.9964 B( 29-C , 31-C ) :  -0.1635 B( 29-C , 35-H ) :   0.9428
B( 29-C , 37-H ) :   0.8273 B( 29-C , 46-H ) :   0.1487 B( 30-C , 31-C ) :   1.1723
B( 30-C , 34-C ) :   0.1238 B( 30-C , 36-H ) :   0.9694 B( 30-C , 45-H ) :   0.9950
B( 31-C , 32-C ) :   1.1341 B( 31-C , 33-C ) :  -0.1085 B( 31-C , 46-H ) :   0.8146
B( 32-C , 33-C ) :   1.0969 B( 32-C , 34-C ) :   0.1023 B( 32-C , 43-H ) :   1.1535
B( 32-C , 46-H ) :  -0.2579 B( 33-C , 34-C ) :   0.9749 B( 33-C , 39-H ) :   0.1606
B( 33-C , 42-H ) :   0.8923 B( 33-C , 44-H ) :   0.9347 B( 34-C , 38-H ) :   0.9715
B( 34-C , 39-H ) :  -0.1449 B( 34-C , 41-H ) :   0.9320

MP2 TOTAL ENERGY:    -1256.383816964 Eh
Dispersion correction           -0.069826713
FINAL SINGLE POINT ENERGY     -1256.453643676683

DIPOLE MOMENT
-------------
                                X             Y             Z
Electronic contribution:     -3.30420     -21.50588      -2.00711
Nuclear contribution   :      3.57716      23.71136       2.15126
                        -----------------------------------------
Total Dipole Moment    :      0.27296       2.20549       0.14415
                        -----------------------------------------
Magnitude (a.u.)       :      2.22698
Magnitude (Debye)      :      5.66054

Rotational constants in cm-1:     0.013422     0.011126     0.009459
Rotational constants in MHz :   402.378908   333.556426   283.583792

                             ****ORCA TERMINATED NORMALLY****
TOTAL RUN TIME: 0 days 0 hours 4 minutes 16 seconds 652 msec
