                         Program Version 4.2.0 -  RELEASE  -
|  1> #
|  2> # MOR10_ed09 ri-DSD-BLYP/2013-D3BJ/Def2-TZVPPD
|  3> #
|  4> ! rijk ri-dsd-blyp/2013 d3bj def2-tzvppd def2/jk def2-tzvppd/c grid4 nofinalgrid
|  5>
|  6> *xyz 0 1
|  7> C        0.808995    0.630455    2.540471
|  8> C        1.251846    1.095590    1.293526
|  9> C        1.383898    2.476779    1.093534
| 10> C        1.096273    3.369549    2.123624
| 11> C        0.674512    2.896605    3.366402
| 12> C        0.527691    1.524549    3.571013
| 13> P        1.574642   -0.069667   -0.082699
| 14> C        2.832960    0.843508   -1.058615
| 15> C        2.470614    1.376098   -2.300811
| 16> C        3.389175    2.120533   -3.040434
| 17> C        4.677141    2.329565   -2.547864
| 18> C        5.047172    1.790502   -1.313611
| 19> C        4.129605    1.051595   -0.570111
| 20> Rh      -0.002604   -0.796146   -1.344377
| 21> Cl       1.074079   -1.834200   -3.101706
| 22> P       -1.622228   -0.075877   -0.088018
| 23> C       -1.803842    1.702415    0.297126
| 24> C       -2.229632    2.223789    1.521581
| 25> C       -2.349352    3.604004    1.692487
| 26> C       -2.048907    4.471915    0.644369
| 27> C       -1.606201    3.958746   -0.577355
| 28> C       -1.475459    2.583893   -0.746478
| 29> C       -3.062543   -0.419252   -1.169366
| 30> C       -3.141320   -1.718422   -1.702099
| 31> C       -4.157899   -2.054399   -2.592475
| 32> C       -5.110047   -1.100127   -2.955969
| 33> C       -5.041177    0.189383   -2.426273
| 34> C       -4.021006    0.532927   -1.539475
| 35> C       -2.066176   -1.000166    1.430207
| 36> C       -1.181452   -1.986758    1.882501
| 37> C       -1.497950   -2.762866    2.997043
| 38> C       -2.708929   -2.565810    3.661246
| 39> C       -3.611118   -1.604929    3.197782
| 40> C       -3.296146   -0.830428    2.082866
| 41> C        2.526762   -1.412838    0.731905
| 42> C        3.276788   -1.210573    1.900876
| 43> C        4.004905   -2.259926    2.460546
| 44> C        3.996021   -3.518658    1.858231
| 45> C        3.258939   -3.724012    0.690924
| 46> C        2.525229   -2.679846    0.130400
| 47> H       -2.400862   -2.462118   -1.411221
| 48> H       -4.205196   -3.058543   -3.003745
| 49> H       -5.903513   -1.360959   -3.650464
| 50> H       -5.783053    0.932397   -2.706210
| 51> H       -3.967070    1.539632   -1.137031
| 52> H       -2.450107    1.557807    2.348608
| 53> H       -2.671735    3.999637    2.651651
| 54> H       -2.145762    5.545320    0.781176
| 55> H       -1.354424    4.630618   -1.393167
| 56> H       -1.106831    2.171328   -1.683412
| 57> H       -0.254747   -2.145782    1.334840
| 58> H       -0.803470   -3.525000    3.339550
| 59> H       -2.958943   -3.170852    4.528281
| 60> H       -4.564895   -1.467934    3.699990
| 61> H       -4.014311   -0.106909    1.706849
| 62> H        3.285372   -0.236670    2.380292
| 63> H        4.578140   -2.092663    3.368393
| 64> H        4.561493   -4.335782    2.297848
| 65> H        3.251715   -4.700268    0.214323
| 66> H        1.950377   -2.830532   -0.780423
| 67> H        1.471910    1.178524   -2.682000
| 68> H        3.101239    2.524675   -4.006836
| 69> H        5.396289    2.901586   -3.127755
| 70> H        6.053788    1.939891   -0.932858
| 71> H        4.425922    0.628717    0.384972
| 72> H        1.719088    2.850389    0.131432
| 73> H        1.199114    4.437105    1.952609
| 74> H        0.454504    3.594780    4.169138
| 75> H        0.193294    1.146402    4.533186
| 76> H        0.698101   -0.433995    2.712341
| 77> *
| 78>
| 79> %maxcore 5000
| 80>
| 81> %pal
| 82> nprocs = 24
| 83> end
| 84>
| 85>
| 86>                          ****END OF INPUT****

CARTESIAN COORDINATES (ANGSTROEM)
---------------------------------
  C      0.808995    0.630455    2.540471
  C      1.251846    1.095590    1.293526
  C      1.383898    2.476779    1.093534
  C      1.096273    3.369549    2.123624
  C      0.674512    2.896605    3.366402
  C      0.527691    1.524549    3.571013
  P      1.574642   -0.069667   -0.082699
  C      2.832960    0.843508   -1.058615
  C      2.470614    1.376098   -2.300811
  C      3.389175    2.120533   -3.040434
  C      4.677141    2.329565   -2.547864
  C      5.047172    1.790502   -1.313611
  C      4.129605    1.051595   -0.570111
  Rh    -0.002604   -0.796146   -1.344377
  Cl     1.074079   -1.834200   -3.101706
  P     -1.622228   -0.075877   -0.088018
  C     -1.803842    1.702415    0.297126
  C     -2.229632    2.223789    1.521581
  C     -2.349352    3.604004    1.692487
  C     -2.048907    4.471915    0.644369
  C     -1.606201    3.958746   -0.577355
  C     -1.475459    2.583893   -0.746478
  C     -3.062543   -0.419252   -1.169366
  C     -3.141320   -1.718422   -1.702099
  C     -4.157899   -2.054399   -2.592475
  C     -5.110047   -1.100127   -2.955969
  C     -5.041177    0.189383   -2.426273
  C     -4.021006    0.532927   -1.539475
  C     -2.066176   -1.000166    1.430207
  C     -1.181452   -1.986758    1.882501
  C     -1.497950   -2.762866    2.997043
  C     -2.708929   -2.565810    3.661246
  C     -3.611118   -1.604929    3.197782
  C     -3.296146   -0.830428    2.082866
  C      2.526762   -1.412838    0.731905
  C      3.276788   -1.210573    1.900876
  C      4.004905   -2.259926    2.460546
  C      3.996021   -3.518658    1.858231
  C      3.258939   -3.724012    0.690924
  C      2.525229   -2.679846    0.130400
  H     -2.400862   -2.462118   -1.411221
  H     -4.205196   -3.058543   -3.003745
  H     -5.903513   -1.360959   -3.650464
  H     -5.783053    0.932397   -2.706210
  H     -3.967070    1.539632   -1.137031
  H     -2.450107    1.557807    2.348608
  H     -2.671735    3.999637    2.651651
  H     -2.145762    5.545320    0.781176
  H     -1.354424    4.630618   -1.393167
  H     -1.106831    2.171328   -1.683412
  H     -0.254747   -2.145782    1.334840
  H     -0.803470   -3.525000    3.339550
  H     -2.958943   -3.170852    4.528281
  H     -4.564895   -1.467934    3.699990
  H     -4.014311   -0.106909    1.706849
  H      3.285372   -0.236670    2.380292
  H      4.578140   -2.092663    3.368393
  H      4.561493   -4.335782    2.297848
  H      3.251715   -4.700268    0.214323
  H      1.950377   -2.830532   -0.780423
  H      1.471910    1.178524   -2.682000
  H      3.101239    2.524675   -4.006836
  H      5.396289    2.901586   -3.127755
  H      6.053788    1.939891   -0.932858
  H      4.425922    0.628717    0.384972
  H      1.719088    2.850389    0.131432
  H      1.199114    4.437105    1.952609
  H      0.454504    3.594780    4.169138
  H      0.193294    1.146402    4.533186
  H      0.698101   -0.433995    2.712341

 Total Charge           Charge          ....    0
 Multiplicity           Mult            ....    1
 Number of Electrons    NEL             ....  310
 Basis Dimension        Dim             .... 2045

ORBITAL ENERGIES
----------------

  NO   OCC          E(Eh)            E(eV)
   0   2.0000    -103.539459     -2817.4519
   1   2.0000     -78.945779     -2148.2239
   2   2.0000     -78.941723     -2148.1135
   3   2.0000     -10.876158      -295.9553
   4   2.0000     -10.874951      -295.9225
   5   2.0000     -10.874531      -295.9110
   6   2.0000     -10.874319      -295.9053
   7   2.0000     -10.872392      -295.8528
   8   2.0000     -10.871938      -295.8405
   9   2.0000     -10.871936      -295.8404
  10   2.0000     -10.871783      -295.8363
  11   2.0000     -10.871627      -295.8320
  12   2.0000     -10.871132      -295.8186
  13   2.0000     -10.870025      -295.7884
  14   2.0000     -10.869700      -295.7796
  15   2.0000     -10.869473      -295.7734
  16   2.0000     -10.869160      -295.7649
  17   2.0000     -10.868803      -295.7552
  18   2.0000     -10.868351      -295.7429
  19   2.0000     -10.868080      -295.7355
  20   2.0000     -10.867549      -295.7210
  21   2.0000     -10.867508      -295.7199
  22   2.0000     -10.867148      -295.7101
  23   2.0000     -10.866860      -295.7023
  24   2.0000     -10.865951      -295.6776
  25   2.0000     -10.865921      -295.6768
  26   2.0000     -10.865262      -295.6588
  27   2.0000     -10.865238      -295.6582
  28   2.0000     -10.865149      -295.6557
  29   2.0000     -10.864442      -295.6365
  30   2.0000     -10.862214      -295.5759
  31   2.0000     -10.861356      -295.5525
  32   2.0000     -10.860709      -295.5349
  33   2.0000     -10.860351      -295.5252
  34   2.0000     -10.858893      -295.4855
  35   2.0000     -10.857748      -295.4543
  36   2.0000     -10.857240      -295.4405
  37   2.0000     -10.857159      -295.4383
  38   2.0000     -10.855273      -295.3870
  39   2.0000     -10.055881      -273.6344
  40   2.0000      -7.627931      -207.5666
  41   2.0000      -7.626945      -207.5397
  42   2.0000      -7.626794      -207.5356
  43   2.0000      -7.179886      -195.3746
  44   2.0000      -7.177383      -195.3065
  45   2.0000      -5.172056      -140.7388
  46   2.0000      -5.171868      -140.7337
  47   2.0000      -5.170446      -140.6950
  48   2.0000      -5.169426      -140.6672
  49   2.0000      -5.169236      -140.6621
  50   2.0000      -5.167536      -140.6158
  51   2.0000      -3.543119       -96.4132
  52   2.0000      -2.215703       -60.2923
  53   2.0000      -2.213607       -60.2353
  54   2.0000      -2.187970       -59.5377
  55   2.0000      -1.066988       -29.0342
  56   2.0000      -1.060279       -28.8517
  57   2.0000      -1.057704       -28.7816
  58   2.0000      -1.053834       -28.6763
  59   2.0000      -1.049753       -28.5652
  60   2.0000      -1.045559       -28.4511
  61   2.0000      -0.963212       -26.2103
  62   2.0000      -0.956226       -26.0202
  63   2.0000      -0.935470       -25.4554
  64   2.0000      -0.935063       -25.4443
  65   2.0000      -0.931123       -25.3372
  66   2.0000      -0.929794       -25.3010
  67   2.0000      -0.927345       -25.2343
  68   2.0000      -0.925648       -25.1882
  69   2.0000      -0.924395       -25.1541
  70   2.0000      -0.921614       -25.0784
  71   2.0000      -0.919425       -25.0188
  72   2.0000      -0.916952       -24.9515
  73   2.0000      -0.879713       -23.9382
  74   2.0000      -0.817106       -22.2346
  75   2.0000      -0.809669       -22.0322
  76   2.0000      -0.767397       -20.8819
  77   2.0000      -0.764327       -20.7984
  78   2.0000      -0.761583       -20.7237
  79   2.0000      -0.757565       -20.6144
  80   2.0000      -0.753921       -20.5152
  81   2.0000      -0.750071       -20.4105
  82   2.0000      -0.749402       -20.3923
  83   2.0000      -0.748290       -20.3620
  84   2.0000      -0.744673       -20.2636
  85   2.0000      -0.738665       -20.1001
  86   2.0000      -0.703975       -19.1561
  87   2.0000      -0.695913       -18.9367
  88   2.0000      -0.650747       -17.7077
  89   2.0000      -0.649942       -17.6858
  90   2.0000      -0.644673       -17.5424
  91   2.0000      -0.639320       -17.3968
  92   2.0000      -0.630607       -17.1597
  93   2.0000      -0.623746       -16.9730
  94   2.0000      -0.585553       -15.9337
  95   2.0000      -0.583709       -15.8835
  96   2.0000      -0.582679       -15.8555
  97   2.0000      -0.579818       -15.7776
  98   2.0000      -0.577823       -15.7234
  99   2.0000      -0.574526       -15.6337
 100   2.0000      -0.571573       -15.5533
 101   2.0000      -0.571105       -15.5405
 102   2.0000      -0.567894       -15.4532
 103   2.0000      -0.567599       -15.4451
 104   2.0000      -0.563954       -15.3460
 105   2.0000      -0.559420       -15.2226
 106   2.0000      -0.545640       -14.8476
 107   2.0000      -0.542435       -14.7604
 108   2.0000      -0.539604       -14.6834
 109   2.0000      -0.537875       -14.6363
 110   2.0000      -0.533907       -14.5283
 111   2.0000      -0.531360       -14.4590
 112   2.0000      -0.528708       -14.3869
 113   2.0000      -0.524120       -14.2620
 114   2.0000      -0.519794       -14.1443
 115   2.0000      -0.512607       -13.9487
 116   2.0000      -0.495958       -13.4957
 117   2.0000      -0.484408       -13.1814
 118   2.0000      -0.479437       -13.0461
 119   2.0000      -0.476454       -12.9650
 120   2.0000      -0.468192       -12.7401
 121   2.0000      -0.464556       -12.6412
 122   2.0000      -0.459524       -12.5043
 123   2.0000      -0.456796       -12.4301
 124   2.0000      -0.454544       -12.3688
 125   2.0000      -0.453893       -12.3511
 126   2.0000      -0.450615       -12.2619
 127   2.0000      -0.449706       -12.2371
 128   2.0000      -0.447876       -12.1873
 129   2.0000      -0.441999       -12.0274
 130   2.0000      -0.438474       -11.9315
 131   2.0000      -0.431760       -11.7488
 132   2.0000      -0.427814       -11.6414
 133   2.0000      -0.422999       -11.5104
 134   2.0000      -0.421083       -11.4583
 135   2.0000      -0.402409       -10.9501
 136   2.0000      -0.379129       -10.3166
 137   2.0000      -0.355657        -9.6779
 138   2.0000      -0.346835        -9.4379
 139   2.0000      -0.340882        -9.2759
 140   2.0000      -0.331238        -9.0135
 141   2.0000      -0.330339        -8.9890
 142   2.0000      -0.323971        -8.8157
 143   2.0000      -0.321092        -8.7374
 144   2.0000      -0.320501        -8.7213
 145   2.0000      -0.316742        -8.6190
 146   2.0000      -0.312872        -8.5137
 147   2.0000      -0.310649        -8.4532
 148   2.0000      -0.308819        -8.4034
 149   2.0000      -0.306484        -8.3398
 150   2.0000      -0.303652        -8.2628
 151   2.0000      -0.302697        -8.2368
 152   2.0000      -0.291983        -7.9453
 153   2.0000      -0.278850        -7.5879
 154   2.0000      -0.263730        -7.1764
 155   0.0000       0.022441         0.6107
 156   0.0000       0.031511         0.8575
 157   0.0000       0.032460         0.8833
 158   0.0000       0.036680         0.9981
 159   0.0000       0.038965         1.0603

MULLIKEN ATOMIC CHARGES
-----------------------
   0 C :    0.965164
   1 C :    0.338294
   2 C :   -0.024813
   3 C :   -0.334175
   4 C :    0.110959
   5 C :   -0.917682
   6 P :    2.477529
   7 C :   -0.034551
   8 C :    0.236884
   9 C :   -0.329887
  10 C :    0.144608
  11 C :   -0.422682
  12 C :    0.102444
  13 Rh:   -1.229208
  14 Cl:   -0.741565
  15 P :    1.139175
  16 C :    1.236581
  17 C :   -0.270739
  18 C :   -0.318347
  19 C :    0.039437
  20 C :   -0.437122
  21 C :    0.364130
  22 C :    1.064161
  23 C :   -0.179360
  24 C :   -0.399953
  25 C :    0.131173
  26 C :   -0.252214
  27 C :    0.004261
  28 C :    0.409118
  29 C :   -0.079148
  30 C :   -0.216643
  31 C :    0.115815
  32 C :   -0.379839
  33 C :    0.081650
  34 C :    0.333959
  35 C :    0.509665
  36 C :   -0.622011
  37 C :    0.090557
  38 C :   -0.335276
  39 C :    0.163495
  40 H :   -0.164899
  41 H :   -0.087665
  42 H :   -0.046165
  43 H :   -0.083466
  44 H :   -0.067219
  45 H :   -0.055501
  46 H :   -0.185852
  47 H :   -0.120110
  48 H :   -0.147492
  49 H :   -0.280857
  50 H :    0.056080
  51 H :   -0.086385
  52 H :   -0.057001
  53 H :   -0.101691
  54 H :    0.008296
  55 H :    0.005024
  56 H :   -0.097857
  57 H :   -0.051065
  58 H :   -0.090374
  59 H :   -0.033368
  60 H :   -0.075527
  61 H :   -0.084177
  62 H :   -0.035297
  63 H :   -0.084139
  64 H :   -0.034573
  65 H :   -0.163263
  66 H :   -0.177979
  67 H :   -0.091658
  68 H :   -0.153963
  69 H :    0.054301
Sum of atomic charges:   -0.0000000

LOEWDIN ATOMIC CHARGES
----------------------
   0 C :   -0.022978
   1 C :   -0.302407
   2 C :    0.009456
   3 C :    0.021796
   4 C :    0.015266
   5 C :    0.024950
   6 P :    0.928326
   7 C :   -0.304691
   8 C :   -0.031613
   9 C :    0.023521
  10 C :    0.017825
  11 C :    0.020459
  12 C :    0.012278
  13 Rh:    0.041940
  14 Cl:   -0.208373
  15 P :    0.934728
  16 C :   -0.312441
  17 C :    0.004958
  18 C :    0.018502
  19 C :    0.017807
  20 C :    0.022507
  21 C :   -0.028610
  22 C :   -0.293049
  23 C :   -0.014888
  24 C :    0.024295
  25 C :    0.019434
  26 C :    0.020995
  27 C :    0.009187
  28 C :   -0.293210
  29 C :   -0.023973
  30 C :    0.026690
  31 C :    0.022372
  32 C :    0.023972
  33 C :   -0.006162
  34 C :   -0.296485
  35 C :   -0.018705
  36 C :    0.020340
  37 C :    0.017889
  38 C :    0.025693
  39 C :   -0.011825
  40 H :   -0.006619
  41 H :    0.003452
  42 H :    0.000103
  43 H :    0.000636
  44 H :   -0.006604
  45 H :   -0.010389
  46 H :    0.004384
  47 H :    0.000893
  48 H :    0.002702
  49 H :   -0.002866
  50 H :   -0.027490
  51 H :    0.003870
  52 H :    0.000671
  53 H :    0.000913
  54 H :    0.005946
  55 H :   -0.003598
  56 H :   -0.000425
  57 H :   -0.000476
  58 H :    0.002472
  59 H :   -0.075210
  60 H :   -0.041032
  61 H :    0.001115
  62 H :   -0.000822
  63 H :   -0.000901
  64 H :   -0.006819
  65 H :    0.002484
  66 H :    0.005338
  67 H :    0.002357
  68 H :    0.004743
  69 H :   -0.014606

  Mayer bond orders larger than 0.100000
B(  0-C ,  1-C ) :   1.3943 B(  0-C ,  5-C ) :   0.4125 B(  0-C , 34-C ) :   0.1250
B(  0-C , 68-H ) :  -0.2326 B(  0-C , 69-H ) :   0.8970 B(  1-C ,  2-C ) :   0.8907
B(  1-C ,  6-P ) :   0.6993 B(  1-C ,  7-C ) :   0.2480 B(  1-C , 12-C ) :   0.1029
B(  1-C , 15-P ) :   0.2196 B(  1-C , 34-C ) :   0.1535 B(  1-C , 65-H ) :  -0.1596
B(  1-C , 69-H ) :  -0.2045 B(  2-C ,  3-C ) :   1.1585 B(  2-C ,  8-C ) :  -0.1465
B(  2-C , 12-C ) :   0.1217 B(  2-C , 34-C ) :  -0.1823 B(  2-C , 65-H ) :   1.0871
B(  2-C , 66-H ) :  -0.1085 B(  3-C ,  4-C ) :   1.1532 B(  3-C ,  5-C ) :   0.2002
B(  3-C ,  6-P ) :  -0.1270 B(  3-C ,  7-C ) :   0.1293 B(  3-C , 65-H ) :  -0.2001
B(  3-C , 66-H ) :   1.1874 B(  3-C , 67-H ) :  -0.1187 B(  4-C ,  5-C ) :   1.0500
B(  4-C , 66-H ) :  -0.1618 B(  4-C , 67-H ) :   1.1582 B(  4-C , 68-H ) :  -0.1398
B(  5-C ,  6-P ) :   0.1202 B(  5-C , 34-C ) :  -0.1453 B(  5-C , 36-C ) :   0.1607
B(  5-C , 39-C ) :  -0.2452 B(  5-C , 67-H ) :  -0.1687 B(  5-C , 68-H ) :   1.3742
B(  5-C , 69-H ) :  -0.1459 B(  6-P ,  7-C ) :   0.4587 B(  6-P ,  9-C ) :  -0.1204
B(  6-P , 11-C ) :  -0.1333 B(  6-P , 12-C ) :  -0.4270 B(  6-P , 13-Rh) :   0.5896
B(  6-P , 14-Cl) :  -0.9836 B(  6-P , 15-P ) :  -0.4034 B(  6-P , 22-C ) :   0.2816
B(  6-P , 34-C ) :   0.4209 B(  6-P , 35-C ) :   0.3603 B(  6-P , 50-H ) :   0.1523
B(  6-P , 55-H ) :   0.1015 B(  7-C ,  8-C ) :   1.0048 B(  7-C , 12-C ) :   1.2840
B(  7-C , 15-P ) :   0.1376 B(  7-C , 34-C ) :   0.8323 B(  7-C , 35-C ) :  -0.4906
B(  8-C ,  9-C ) :   1.0523 B(  8-C , 10-C ) :  -0.1087 B(  8-C , 12-C ) :  -0.1308
B(  8-C , 13-Rh) :   0.1084 B(  8-C , 35-C ) :  -0.1104 B(  8-C , 39-C ) :   0.2302
B(  8-C , 60-H ) :   0.9155 B(  9-C , 10-C ) :   1.0606 B(  9-C , 11-C ) :   0.1445
B(  9-C , 60-H ) :  -0.1966 B(  9-C , 61-H ) :   1.1825 B(  9-C , 62-H ) :  -0.1316
B( 10-C , 11-C ) :   1.0547 B( 10-C , 61-H ) :  -0.1510 B( 10-C , 62-H ) :   1.1420
B( 10-C , 63-H ) :  -0.1419 B( 11-C , 12-C ) :   1.0851 B( 11-C , 35-C ) :  -0.1250
B( 11-C , 39-C ) :   0.1343 B( 11-C , 62-H ) :  -0.1299 B( 11-C , 63-H ) :   1.1804
B( 11-C , 64-H ) :  -0.1950 B( 12-C , 35-C ) :   0.3224 B( 12-C , 39-C ) :  -0.3632
B( 12-C , 63-H ) :  -0.1054 B( 12-C , 64-H ) :   0.9827 B( 13-Rh, 14-Cl) :   1.3485
B( 13-Rh, 15-P ) :   1.1104 B( 13-Rh, 16-C ) :  -0.1271 B( 13-Rh, 21-C ) :   0.1588
B( 13-Rh, 34-C ) :   0.1932 B( 13-Rh, 35-C ) :  -0.1390 B( 13-Rh, 39-C ) :   0.1263
B( 13-Rh, 49-H ) :   0.1165 B( 15-P , 16-C ) :   0.4185 B( 15-P , 21-C ) :   0.4076
B( 15-P , 22-C ) :  -0.3302 B( 15-P , 23-C ) :  -0.1263 B( 15-P , 24-C ) :  -0.1465
B( 15-P , 27-C ) :  -0.3195 B( 15-P , 28-C ) :   1.2367 B( 15-P , 29-C ) :  -0.2841
B( 15-P , 33-C ) :  -0.2624 B( 15-P , 49-H ) :   0.1218 B( 16-C , 17-C ) :   0.5226
B( 16-C , 18-C ) :  -0.2626 B( 16-C , 19-C ) :  -0.1584 B( 16-C , 20-C ) :  -0.2396
B( 16-C , 21-C ) :   1.2829 B( 16-C , 22-C ) :   0.3218 B( 16-C , 27-C ) :   0.1006
B( 16-C , 28-C ) :   0.3337 B( 16-C , 45-H ) :  -0.1732 B( 16-C , 49-H ) :  -0.2435
B( 17-C , 18-C ) :   1.2317 B( 17-C , 20-C ) :   0.2711 B( 17-C , 21-C ) :  -0.1810
B( 17-C , 22-C ) :  -0.2036 B( 17-C , 44-H ) :  -0.1335 B( 17-C , 45-H ) :   1.0135
B( 17-C , 46-H ) :  -0.1472 B( 18-C , 19-C ) :   1.1619 B( 18-C , 20-C ) :   0.1242
B( 18-C , 45-H ) :  -0.1528 B( 18-C , 46-H ) :   1.2423 B( 18-C , 47-H ) :  -0.1451
B( 19-C , 20-C ) :   1.2042 B( 19-C , 46-H ) :  -0.1329 B( 19-C , 47-H ) :   1.1985
B( 19-C , 48-H ) :  -0.1555 B( 20-C , 21-C ) :   0.8635 B( 20-C , 47-H ) :  -0.1301
B( 20-C , 48-H ) :   1.2664 B( 20-C , 49-H ) :  -0.1577 B( 21-C , 22-C ) :  -0.1483
B( 21-C , 48-H ) :  -0.1235 B( 21-C , 49-H ) :   1.0052 B( 22-C , 23-C ) :   0.5901
B( 22-C , 26-C ) :  -0.1067 B( 22-C , 27-C ) :   1.0871 B( 22-C , 28-C ) :   0.1528
B( 22-C , 29-C ) :   0.3159 B( 22-C , 40-H ) :  -0.2964 B( 23-C , 24-C ) :   1.2939
B( 23-C , 27-C ) :  -0.1697 B( 23-C , 28-C ) :   0.2478 B( 23-C , 29-C ) :  -0.1755
B( 23-C , 33-C ) :   0.1212 B( 23-C , 40-H ) :   1.2226 B( 24-C , 25-C ) :   1.0734
B( 24-C , 41-H ) :   1.1691 B( 24-C , 42-H ) :  -0.1256 B( 25-C , 26-C ) :   1.0936
B( 25-C , 41-H ) :  -0.1481 B( 25-C , 42-H ) :   1.1460 B( 25-C , 43-H ) :  -0.1388
B( 26-C , 27-C ) :   1.0965 B( 26-C , 42-H ) :  -0.1262 B( 26-C , 43-H ) :   1.1729
B( 26-C , 44-H ) :  -0.2029 B( 27-C , 44-H ) :   1.1246 B( 28-C , 29-C ) :   1.0205
B( 28-C , 32-C ) :  -0.2301 B( 28-C , 33-C ) :   0.8218 B( 28-C , 50-H ) :  -0.1762
B( 29-C , 30-C ) :   1.0288 B( 29-C , 33-C ) :   0.1592 B( 29-C , 50-H ) :   0.8226
B( 30-C , 31-C ) :   1.0732 B( 30-C , 50-H ) :  -0.1400 B( 30-C , 51-H ) :   1.1767
B( 30-C , 52-H ) :  -0.1347 B( 31-C , 32-C ) :   1.0740 B( 31-C , 51-H ) :  -0.1345
B( 31-C , 52-H ) :   1.1679 B( 31-C , 53-H ) :  -0.1543 B( 32-C , 33-C ) :   1.2378
B( 32-C , 52-H ) :  -0.1308 B( 32-C , 53-H ) :   1.2148 B( 32-C , 54-H ) :  -0.1398
B( 33-C , 54-H ) :   1.0228 B( 34-C , 35-C ) :   1.0229 B( 34-C , 36-C ) :  -0.1211
B( 34-C , 38-C ) :  -0.1330 B( 34-C , 39-C ) :   1.3600 B( 34-C , 55-H ) :  -0.1214
B( 35-C , 36-C ) :   0.8919 B( 35-C , 55-H ) :   1.0002 B( 35-C , 56-H ) :  -0.1524
B( 36-C , 37-C ) :   1.1191 B( 36-C , 38-C ) :   0.1028 B( 36-C , 55-H ) :  -0.1269
B( 36-C , 56-H ) :   1.2700 B( 36-C , 57-H ) :  -0.1281 B( 36-C , 69-H ) :  -0.1011
B( 37-C , 38-C ) :   1.1065 B( 37-C , 56-H ) :  -0.1381 B( 37-C , 57-H ) :   1.1506
B( 37-C , 58-H ) :  -0.1437 B( 38-C , 39-C ) :   1.0513 B( 38-C , 57-H ) :  -0.1245
B( 38-C , 58-H ) :   1.1979 B( 38-C , 59-H ) :  -0.1903 B( 39-C , 59-H ) :   1.0594
B( 39-C , 69-H ) :   0.1713

MP2 TOTAL ENERGY:    -2641.481958434 Eh
Dispersion correction           -0.129880549
FINAL SINGLE POINT ENERGY     -2641.611838982937

DIPOLE MOMENT
-------------
                                X             Y             Z
Electronic contribution:      1.96790     -60.53549    -101.87492
Nuclear contribution   :     -3.11357      62.05191     104.48164
                        -----------------------------------------
Total Dipole Moment    :     -1.14568       1.51642       2.60672
                        -----------------------------------------
Magnitude (a.u.)       :      3.22600
Magnitude (Debye)      :      8.19985

Rotational constants in cm-1:     0.003240     0.002395     0.002360
Rotational constants in MHz :    97.140326    71.802021    70.757797

                             ****ORCA TERMINATED NORMALLY****
TOTAL RUN TIME: 0 days 0 hours 36 minutes 7 seconds 126 msec
