                         Program Version 4.2.0 -  RELEASE  -
|  1> #
|  2> # MOR18_ed37 ri-DSD-BLYP/2013-D3BJ/Def2-TZVPPD
|  3> #
|  4> ! rijk ri-dsd-blyp/2013 d3bj def2-tzvppd def2/jk def2-tzvppd/c grid4 nofinalgrid
|  5>
|  6> *xyz 0 1
|  7> Mo      -0.098072   -0.000113   -0.000040
|  8> O       -1.958568   -1.162297    2.254949
|  9> C       -1.292076   -0.726548    1.409379
| 10> C       -1.290510    1.584735   -0.075353
| 11> O       -1.955816    2.535729   -0.120716
| 12> C       -1.292074   -0.856985   -1.334180
| 13> O       -1.958517   -1.371361   -2.134397
| 14> C        1.772262   -1.255233   -0.664863
| 15> C        1.773533   -1.210923    0.743855
| 16> C        1.772126    0.051067    1.419259
| 17> C        1.773764    1.248901    0.676519
| 18> C        1.772513    1.202801   -0.754108
| 19> C        1.773865   -0.039338   -1.420099
| 20> H        1.752441   -2.209415   -1.178166
| 21> H        1.754475   -2.130485    1.316775
| 22> H        1.752160    0.083668    2.502258
| 23> H        1.754801    2.204840    1.186440
| 24> H        1.752821    2.124408   -1.323840
| 25> H        1.755108   -0.075692   -2.502938
| 26> *
| 27>
| 28> %maxcore 5000
| 29>
| 30> %pal
| 31> nprocs = 24
| 32> end
| 33>
| 34>
| 35>                          ****END OF INPUT****

CARTESIAN COORDINATES (ANGSTROEM)
---------------------------------
  Mo    -0.098072   -0.000113   -0.000040
  O     -1.958568   -1.162297    2.254949
  C     -1.292076   -0.726548    1.409379
  C     -1.290510    1.584735   -0.075353
  O     -1.955816    2.535729   -0.120716
  C     -1.292074   -0.856985   -1.334180
  O     -1.958517   -1.371361   -2.134397
  C      1.772262   -1.255233   -0.664863
  C      1.773533   -1.210923    0.743855
  C      1.772126    0.051067    1.419259
  C      1.773764    1.248901    0.676519
  C      1.772513    1.202801   -0.754108
  C      1.773865   -0.039338   -1.420099
  H      1.752441   -2.209415   -1.178166
  H      1.754475   -2.130485    1.316775
  H      1.752160    0.083668    2.502258
  H      1.754801    2.204840    1.186440
  H      1.752821    2.124408   -1.323840
  H      1.755108   -0.075692   -2.502938

 Total Charge           Charge          ....    0
 Multiplicity           Mult            ....    1
 Number of Electrons    NEL             ....   98
 Basis Dimension        Dim             ....  611

ORBITAL ENERGIES
----------------

  NO   OCC          E(Eh)            E(eV)
   0   2.0000     -20.101151      -546.9801
   1   2.0000     -20.101147      -546.9800
   2   2.0000     -20.101143      -546.9799
   3   2.0000     -10.965796      -298.3945
   4   2.0000     -10.965789      -298.3943
   5   2.0000     -10.965783      -298.3941
   6   2.0000     -10.916755      -297.0600
   7   2.0000     -10.916381      -297.0498
   8   2.0000     -10.916378      -297.0497
   9   2.0000     -10.915378      -297.0225
  10   2.0000     -10.915377      -297.0225
  11   2.0000     -10.914972      -297.0115
  12   2.0000      -2.849391       -77.5359
  13   2.0000      -1.766035       -48.0563
  14   2.0000      -1.751840       -47.6700
  15   2.0000      -1.751827       -47.6696
  16   2.0000      -1.332504       -36.2593
  17   2.0000      -1.331788       -36.2398
  18   2.0000      -1.331785       -36.2397
  19   2.0000      -1.099398       -29.9161
  20   2.0000      -0.976148       -26.5623
  21   2.0000      -0.976147       -26.5623
  22   2.0000      -0.797772       -21.7085
  23   2.0000      -0.797770       -21.7084
  24   2.0000      -0.704757       -19.1774
  25   2.0000      -0.696782       -18.9604
  26   2.0000      -0.687658       -18.7121
  27   2.0000      -0.687651       -18.7119
  28   2.0000      -0.629844       -17.1389
  29   2.0000      -0.604187       -16.4408
  30   2.0000      -0.590532       -16.0692
  31   2.0000      -0.590531       -16.0692
  32   2.0000      -0.578889       -15.7524
  33   2.0000      -0.551728       -15.0133
  34   2.0000      -0.549737       -14.9591
  35   2.0000      -0.549726       -14.9588
  36   2.0000      -0.540453       -14.7065
  37   2.0000      -0.540448       -14.7063
  38   2.0000      -0.532644       -14.4940
  39   2.0000      -0.522136       -14.2081
  40   2.0000      -0.522120       -14.2076
  41   2.0000      -0.493729       -13.4351
  42   2.0000      -0.493724       -13.4349
  43   2.0000      -0.492579       -13.4037
  44   2.0000      -0.399124       -10.8607
  45   2.0000      -0.399114       -10.8605
  46   2.0000      -0.274493        -7.4693
  47   2.0000      -0.263605        -7.1730
  48   2.0000      -0.263585        -7.1725
  49   0.0000       0.018902         0.5144
  50   0.0000       0.018912         0.5146
  51   0.0000       0.031830         0.8661
  52   0.0000       0.042425         1.1544
  53   0.0000       0.042435         1.1547

MULLIKEN ATOMIC CHARGES
-----------------------
   0 Mo:   -0.171525
   1 O :   -0.342306
   2 C :    0.303331
   3 C :    0.303537
   4 O :   -0.342315
   5 C :    0.303695
   6 O :   -0.342347
   7 C :    0.101703
   8 C :    0.052553
   9 C :    0.103629
  10 C :    0.052817
  11 C :    0.103188
  12 C :    0.052796
  13 H :   -0.026375
  14 H :   -0.033227
  15 H :   -0.026478
  16 H :   -0.033302
  17 H :   -0.026311
  18 H :   -0.033063
Sum of atomic charges:    0.0000000

LOEWDIN ATOMIC CHARGES
----------------------
   0 Mo:    0.638588
   1 O :    0.038333
   2 C :   -0.186398
   3 C :   -0.186441
   4 O :    0.038340
   5 C :   -0.186409
   6 O :    0.038324
   7 C :   -0.046053
   8 C :   -0.044934
   9 C :   -0.046094
  10 C :   -0.044966
  11 C :   -0.046085
  12 C :   -0.044943
  13 H :    0.013324
  14 H :    0.012906
  15 H :    0.013333
  16 H :    0.012920
  17 H :    0.013341
  18 H :    0.012914

  Mayer bond orders larger than 0.100000
B(  0-Mo,  2-C ) :   1.2185 B(  0-Mo,  3-C ) :   1.2183 B(  0-Mo,  5-C ) :   1.2185
B(  0-Mo,  7-C ) :   0.3769 B(  0-Mo,  8-C ) :   0.3934 B(  0-Mo,  9-C ) :   0.3766
B(  0-Mo, 10-C ) :   0.3934 B(  0-Mo, 11-C ) :   0.3767 B(  0-Mo, 12-C ) :   0.3931
B(  1-O ,  2-C ) :   1.9813 B(  3-C ,  4-O ) :   1.9811 B(  5-C ,  6-O ) :   1.9813
B(  7-C ,  8-C ) :   1.2631 B(  7-C ,  9-C ) :  -0.1356 B(  7-C , 11-C ) :  -0.1348
B(  7-C , 12-C ) :   1.0306 B(  7-C , 13-H ) :   1.0541 B(  8-C ,  9-C ) :   1.0299
B(  8-C , 10-C ) :  -0.1266 B(  8-C , 12-C ) :  -0.1266 B(  8-C , 14-H ) :   1.0578
B(  9-C , 10-C ) :   1.2639 B(  9-C , 11-C ) :  -0.1356 B(  9-C , 15-H ) :   1.0544
B( 10-C , 11-C ) :   1.0274 B( 10-C , 12-C ) :  -0.1272 B( 10-C , 16-H ) :   1.0581
B( 11-C , 12-C ) :   1.2643 B( 11-C , 17-H ) :   1.0543 B( 12-C , 18-H ) :   1.0580

MP2 TOTAL ENERGY:     -640.049930048 Eh
Dispersion correction           -0.032023825
FINAL SINGLE POINT ENERGY      -640.081953873742

DIPOLE MOMENT
-------------
                                X             Y             Z
Electronic contribution:    -10.85524      -0.00589      -0.00268
Nuclear contribution   :     13.46160       0.00506       0.00283
                        -----------------------------------------
Total Dipole Moment    :      2.60636      -0.00083       0.00015
                        -----------------------------------------
Magnitude (a.u.)       :      2.60636
Magnitude (Debye)      :      6.62484

Rotational constants in cm-1:     0.028916     0.021584     0.021580
Rotational constants in MHz :   866.875127   647.065472   646.965216

                             ****ORCA TERMINATED NORMALLY****
TOTAL RUN TIME: 0 days 0 hours 0 minutes 40 seconds 662 msec
