                         Program Version 4.2.0 -  RELEASE  -
|  1> #
|  2> # MOR15_ed28 ri-DSD-BLYP/2013-D3BJ/Def2-TZVPPD
|  3> #
|  4> ! rijk ri-dsd-blyp/2013 d3bj def2-tzvppd def2/jk def2-tzvppd/c grid4 nofinalgrid
|  5>
|  6> *xyz 0 1
|  7> P        2.231289   -0.430274   -0.463190
|  8> P       -2.231227    0.430230   -0.463237
|  9> C        0.601806    0.475539   -0.398801
| 10> C       -0.601746   -0.475582   -0.398812
| 11> H        0.558406    1.125089   -1.282007
| 12> H        0.584231    1.127683    0.485308
| 13> H       -0.558397   -1.125071   -1.282069
| 14> H       -0.584133   -1.127767    0.485258
| 15> C       -2.297387    1.057835    1.283006
| 16> H       -3.294023    1.464895    1.482076
| 17> H       -1.575039    1.869076    1.414857
| 18> H       -2.084239    0.266904    2.013068
| 19> C       -3.365229   -1.028103   -0.282748
| 20> H       -3.089031   -1.663694    0.567640
| 21> H       -3.336618   -1.627593   -1.198231
| 22> H       -4.392612   -0.676718   -0.143291
| 23> C        3.365219    1.028123   -0.282780
| 24> H        4.392633    0.676869   -0.143242
| 25> H        3.088901    1.663766    0.567523
| 26> H        3.336575    1.627522   -1.198328
| 27> C        2.297280   -1.057763    1.283073
| 28> H        1.574883   -1.868971    1.414841
| 29> H        2.084009   -0.266765    2.013028
| 30> H        3.293857   -1.464863    1.482348
| 31> *
| 32>
| 33> %maxcore 5000
| 34>
| 35> %pal
| 36> nprocs = 24
| 37> end
| 38>
| 39>
| 40>                          ****END OF INPUT****

CARTESIAN COORDINATES (ANGSTROEM)
---------------------------------
  P      2.231289   -0.430274   -0.463190
  P     -2.231227    0.430230   -0.463237
  C      0.601806    0.475539   -0.398801
  C     -0.601746   -0.475582   -0.398812
  H      0.558406    1.125089   -1.282007
  H      0.584231    1.127683    0.485308
  H     -0.558397   -1.125071   -1.282069
  H     -0.584133   -1.127767    0.485258
  C     -2.297387    1.057835    1.283006
  H     -3.294023    1.464895    1.482076
  H     -1.575039    1.869076    1.414857
  H     -2.084239    0.266904    2.013068
  C     -3.365229   -1.028103   -0.282748
  H     -3.089031   -1.663694    0.567640
  H     -3.336618   -1.627593   -1.198231
  H     -4.392612   -0.676718   -0.143291
  C      3.365219    1.028123   -0.282780
  H      4.392633    0.676869   -0.143242
  H      3.088901    1.663766    0.567523
  H      3.336575    1.627522   -1.198328
  C      2.297280   -1.057763    1.283073
  H      1.574883   -1.868971    1.414841
  H      2.084009   -0.266765    2.013028
  H      3.293857   -1.464863    1.482348

 Total Charge           Charge          ....    0
 Multiplicity           Mult            ....    1
 Number of Electrons    NEL             ....   82
 Basis Dimension        Dim             ....  590

ORBITAL ENERGIES
----------------

  NO   OCC          E(Eh)            E(eV)
   0   2.0000     -78.895986     -2146.8689
   1   2.0000     -78.895984     -2146.8689
   2   2.0000     -10.853260      -295.3322
   3   2.0000     -10.852797      -295.3196
   4   2.0000     -10.845191      -295.1126
   5   2.0000     -10.845190      -295.1126
   6   2.0000     -10.844661      -295.0982
   7   2.0000     -10.844661      -295.0982
   8   2.0000      -7.132899      -194.0960
   9   2.0000      -7.132898      -194.0960
  10   2.0000      -5.124130      -139.4347
  11   2.0000      -5.124129      -139.4346
  12   2.0000      -5.124050      -139.4325
  13   2.0000      -5.124049      -139.4325
  14   2.0000      -5.121748      -139.3699
  15   2.0000      -5.121747      -139.3698
  16   2.0000      -0.962499       -26.1909
  17   2.0000      -0.915875       -24.9222
  18   2.0000      -0.882364       -24.0103
  19   2.0000      -0.847797       -23.0697
  20   2.0000      -0.847515       -23.0620
  21   2.0000      -0.774643       -21.0791
  22   2.0000      -0.653653       -17.7868
  23   2.0000      -0.645336       -17.5605
  24   2.0000      -0.573428       -15.6038
  25   2.0000      -0.536005       -14.5854
  26   2.0000      -0.533176       -14.5085
  27   2.0000      -0.529878       -14.4187
  28   2.0000      -0.525683       -14.3046
  29   2.0000      -0.500803       -13.6275
  30   2.0000      -0.498982       -13.5780
  31   2.0000      -0.498476       -13.5642
  32   2.0000      -0.497713       -13.5435
  33   2.0000      -0.470651       -12.8071
  34   2.0000      -0.458981       -12.4895
  35   2.0000      -0.447499       -12.1771
  36   2.0000      -0.408706       -11.1214
  37   2.0000      -0.405586       -11.0366
  38   2.0000      -0.369219       -10.0470
  39   2.0000      -0.298152        -8.1131
  40   2.0000      -0.294830        -8.0227
  41   0.0000       0.045586         1.2405
  42   0.0000       0.053824         1.4646
  43   0.0000       0.059858         1.6288
  44   0.0000       0.063611         1.7310
  45   0.0000       0.073900         2.0109

MULLIKEN ATOMIC CHARGES
-----------------------
   0 P :   -0.073973
   1 P :   -0.073959
   2 C :   -0.002971
   3 C :   -0.002938
   4 H :    0.085000
   5 H :    0.025402
   6 H :    0.084884
   7 H :    0.025534
   8 C :   -0.238548
   9 H :    0.087973
  10 H :    0.042468
  11 H :    0.091807
  12 C :   -0.260893
  13 H :    0.084789
  14 H :    0.078348
  15 H :    0.080550
  16 C :   -0.260883
  17 H :    0.080552
  18 H :    0.084801
  19 H :    0.078342
  20 C :   -0.238605
  21 H :    0.042490
  22 H :    0.091855
  23 H :    0.087973
Sum of atomic charges:   -0.0000000

LOEWDIN ATOMIC CHARGES
----------------------
   0 P :    0.925785
   1 P :    0.925792
   2 C :   -0.298333
   3 C :   -0.298331
   4 H :   -0.035007
   5 H :   -0.039112
   6 H :   -0.035008
   7 H :   -0.039114
   8 C :   -0.080511
   9 H :   -0.066158
  10 H :   -0.072487
  11 H :   -0.055931
  12 C :   -0.086222
  13 H :   -0.059249
  14 H :   -0.066204
  15 H :   -0.066575
  16 C :   -0.086217
  17 H :   -0.066574
  18 H :   -0.059256
  19 H :   -0.066200
  20 C :   -0.080519
  21 H :   -0.072491
  22 H :   -0.055928
  23 H :   -0.066151

  Mayer bond orders larger than 0.100000
B(  0-P ,  2-C ) :   0.6942 B(  0-P ,  3-C ) :   0.2169 B(  0-P , 16-C ) :   0.8623
B(  0-P , 20-C ) :   0.8491 B(  1-P ,  2-C ) :   0.2169 B(  1-P ,  3-C ) :   0.6940
B(  1-P ,  8-C ) :   0.8491 B(  1-P , 12-C ) :   0.8624 B(  2-C ,  3-C ) :   0.9464
B(  2-C ,  4-H ) :   0.9914 B(  2-C ,  5-H ) :   0.9624 B(  3-C ,  6-H ) :   0.9914
B(  3-C ,  7-H ) :   0.9624 B(  8-C ,  9-H ) :   1.0109 B(  8-C , 10-H ) :   1.0113
B(  8-C , 11-H ) :   0.9746 B( 12-C , 13-H ) :   0.9712 B( 12-C , 14-H ) :   1.0146
B( 12-C , 15-H ) :   1.0159 B( 16-C , 17-H ) :   1.0159 B( 16-C , 18-H ) :   0.9712
B( 16-C , 19-H ) :   1.0146 B( 20-C , 21-H ) :   1.0113 B( 20-C , 22-H ) :   0.9747
B( 20-C , 23-H ) :   1.0109

MP2 TOTAL ENERGY:     -920.342476844 Eh
Dispersion correction           -0.024644364
FINAL SINGLE POINT ENERGY      -920.367121208196

DIPOLE MOMENT
-------------
                                X             Y             Z
Electronic contribution:      0.00066      -0.00041      -7.03381
Nuclear contribution   :     -0.00067       0.00041       7.75547
                        -----------------------------------------
Total Dipole Moment    :     -0.00001       0.00001       0.72166
                        -----------------------------------------
Magnitude (a.u.)       :      0.72166
Magnitude (Debye)      :      1.83431

Rotational constants in cm-1:     0.093884     0.018404     0.018105
Rotational constants in MHz :  2814.581921   551.745538   542.775536

                             ****ORCA TERMINATED NORMALLY****
TOTAL RUN TIME: 0 days 0 hours 0 minutes 23 seconds 713 msec
