                         Program Version 4.2.0 -  RELEASE  -
|  1> #
|  2> # MOR16_ed33 ri-DSD-BLYP/2013-D3BJ/Def2-TZVPPD
|  3> #
|  4> ! rijk ri-dsd-blyp/2013 d3bj def2-tzvppd def2/jk def2-tzvppd/c grid4 nofinalgrid
|  5>
|  6> *xyz 0 1
|  7> Ru      -0.022566   -0.070875   -0.379144
|  8> P        0.186586   -1.836138    1.061273
|  9> P       -0.107348    1.786969    0.983128
| 10> P       -2.337688   -0.031549   -0.574608
| 11> P        2.258415    0.217420   -0.654771
| 12> H       -1.011320    0.631023   -2.964588
| 13> C       -0.084126    0.244754   -2.536818
| 14> C        0.002235   -1.177677   -2.238071
| 15> H       -0.861138   -1.806799   -2.436001
| 16> C       -1.265405   -2.900768    1.510519
| 17> C        0.882199   -1.676365    2.777543
| 18> C        1.273276   -3.202818    0.434593
| 19> C       -0.218657    3.482246    0.220382
| 20> C       -1.474202    1.984957    2.229068
| 21> C        1.261931    2.159069    2.186793
| 22> C       -3.132442   -1.089929   -1.868209
| 23> C       -3.503325   -0.454941    0.806619
| 24> C       -3.065826    1.589188   -1.096490
| 25> C        3.115513   -0.738567   -1.988082
| 26> C        3.484163   -0.113039    0.695104
| 27> C        2.817918    1.905477   -1.167131
| 28> H        0.775994    0.734504   -2.997508
| 29> H        0.923698   -1.705224   -2.468332
| 30> H       -1.797994   -3.196368    0.601740
| 31> H       -1.951513   -2.343187    2.152343
| 32> H       -0.940552   -3.802999    2.042563
| 33> H        0.220858   -1.033459    3.367392
| 34> H        1.866404   -1.203417    2.738274
| 35> H        0.973380   -2.648584    3.278375
| 36> H        0.869924   -3.550933   -0.520488
| 37> H        1.326184   -4.042772    1.138076
| 38> H        2.284288   -2.829356    0.252702
| 39> H       -0.255493    4.275719    0.977504
| 40> H       -1.111307    3.540133   -0.406666
| 41> H        0.646533    3.642441   -0.427500
| 42> H       -1.340744    2.904812    2.810047
| 43> H       -1.464232    1.128616    2.910406
| 44> H       -2.450699    2.022913    1.741739
| 45> H        1.024646    3.051958    2.776564
| 46> H        2.206281    2.332826    1.666415
| 47> H        1.391528    1.309503    2.862930
| 48> H       -4.214574   -0.920776   -1.864995
| 49> H       -2.933677   -2.144929   -1.660324
| 50> H       -2.737237   -0.849967   -2.858203
| 51> H       -4.496496   -0.037297    0.606865
| 52> H       -3.139236   -0.075571    1.761748
| 53> H       -3.591401   -1.541056    0.877459
| 54> H       -4.128475    1.484093   -1.343350
| 55> H       -2.520683    1.955160   -1.969951
| 56> H       -2.964031    2.325987   -0.296631
| 57> H        4.171126   -0.449128   -2.023284
| 58> H        2.657332   -0.533147   -2.958558
| 59> H        3.043678   -1.811163   -1.790971
| 60> H        4.490887    0.184953    0.381316
| 61> H        3.492626   -1.181661    0.925550
| 62> H        3.218142    0.429172    1.603169
| 63> H        3.886252    1.913189   -1.411457
| 64> H        2.634640    2.627880   -0.369051
| 65> H        2.240286    2.211368   -2.043241
| 66> *
| 67>
| 68> %maxcore 5000
| 69>
| 70> %pal
| 71> nprocs = 24
| 72> end
| 73>
| 74>
| 75>                          ****END OF INPUT****

CARTESIAN COORDINATES (ANGSTROEM)
---------------------------------
  Ru    -0.022566   -0.070875   -0.379144
  P      0.186586   -1.836138    1.061273
  P     -0.107348    1.786969    0.983128
  P     -2.337688   -0.031549   -0.574608
  P      2.258415    0.217420   -0.654771
  H     -1.011320    0.631023   -2.964588
  C     -0.084126    0.244754   -2.536818
  C      0.002235   -1.177677   -2.238071
  H     -0.861138   -1.806799   -2.436001
  C     -1.265405   -2.900768    1.510519
  C      0.882199   -1.676365    2.777543
  C      1.273276   -3.202818    0.434593
  C     -0.218657    3.482246    0.220382
  C     -1.474202    1.984957    2.229068
  C      1.261931    2.159069    2.186793
  C     -3.132442   -1.089929   -1.868209
  C     -3.503325   -0.454941    0.806619
  C     -3.065826    1.589188   -1.096490
  C      3.115513   -0.738567   -1.988082
  C      3.484163   -0.113039    0.695104
  C      2.817918    1.905477   -1.167131
  H      0.775994    0.734504   -2.997508
  H      0.923698   -1.705224   -2.468332
  H     -1.797994   -3.196368    0.601740
  H     -1.951513   -2.343187    2.152343
  H     -0.940552   -3.802999    2.042563
  H      0.220858   -1.033459    3.367392
  H      1.866404   -1.203417    2.738274
  H      0.973380   -2.648584    3.278375
  H      0.869924   -3.550933   -0.520488
  H      1.326184   -4.042772    1.138076
  H      2.284288   -2.829356    0.252702
  H     -0.255493    4.275719    0.977504
  H     -1.111307    3.540133   -0.406666
  H      0.646533    3.642441   -0.427500
  H     -1.340744    2.904812    2.810047
  H     -1.464232    1.128616    2.910406
  H     -2.450699    2.022913    1.741739
  H      1.024646    3.051958    2.776564
  H      2.206281    2.332826    1.666415
  H      1.391528    1.309503    2.862930
  H     -4.214574   -0.920776   -1.864995
  H     -2.933677   -2.144929   -1.660324
  H     -2.737237   -0.849967   -2.858203
  H     -4.496496   -0.037297    0.606865
  H     -3.139236   -0.075571    1.761748
  H     -3.591401   -1.541056    0.877459
  H     -4.128475    1.484093   -1.343350
  H     -2.520683    1.955160   -1.969951
  H     -2.964031    2.325987   -0.296631
  H      4.171126   -0.449128   -2.023284
  H      2.657332   -0.533147   -2.958558
  H      3.043678   -1.811163   -1.790971
  H      4.490887    0.184953    0.381316
  H      3.492626   -1.181661    0.925550
  H      3.218142    0.429172    1.603169
  H      3.886252    1.913189   -1.411457
  H      2.634640    2.627880   -0.369051
  H      2.240286    2.211368   -2.043241

 Total Charge           Charge          ....    0
 Multiplicity           Mult            ....    1
 Number of Electrons    NEL             ....  200
 Basis Dimension        Dim             .... 1446

ORBITAL ENERGIES
----------------

  NO   OCC          E(Eh)            E(eV)
   0   2.0000     -78.913559     -2147.3471
   1   2.0000     -78.911722     -2147.2971
   2   2.0000     -78.911508     -2147.2913
   3   2.0000     -78.908304     -2147.2041
   4   2.0000     -10.841376      -295.0088
   5   2.0000     -10.839405      -294.9552
   6   2.0000     -10.838863      -294.9405
   7   2.0000     -10.838565      -294.9323
   8   2.0000     -10.837764      -294.9106
   9   2.0000     -10.836249      -294.8693
  10   2.0000     -10.835764      -294.8561
  11   2.0000     -10.835479      -294.8484
  12   2.0000     -10.835009      -294.8356
  13   2.0000     -10.834569      -294.8236
  14   2.0000     -10.831877      -294.7503
  15   2.0000     -10.831846      -294.7495
  16   2.0000     -10.793406      -293.7035
  17   2.0000     -10.785990      -293.5017
  18   2.0000      -7.147878      -194.5037
  19   2.0000      -7.146100      -194.4553
  20   2.0000      -7.144462      -194.4107
  21   2.0000      -7.141231      -194.3228
  22   2.0000      -5.139937      -139.8648
  23   2.0000      -5.139745      -139.8596
  24   2.0000      -5.138125      -139.8155
  25   2.0000      -5.137950      -139.8107
  26   2.0000      -5.137515      -139.7989
  27   2.0000      -5.136628      -139.7748
  28   2.0000      -5.136305      -139.7660
  29   2.0000      -5.135706      -139.7497
  30   2.0000      -5.134175      -139.7080
  31   2.0000      -5.133338      -139.6852
  32   2.0000      -5.133180      -139.6809
  33   2.0000      -5.131027      -139.6223
  34   2.0000      -3.286481       -89.4297
  35   2.0000      -2.036461       -55.4149
  36   2.0000      -2.032005       -55.2937
  37   2.0000      -2.027294       -55.1655
  38   2.0000      -0.938014       -25.5247
  39   2.0000      -0.930838       -25.3294
  40   2.0000      -0.924704       -25.1625
  41   2.0000      -0.922363       -25.0988
  42   2.0000      -0.867090       -23.5947
  43   2.0000      -0.851442       -23.1689
  44   2.0000      -0.849257       -23.1095
  45   2.0000      -0.848035       -23.0762
  46   2.0000      -0.841897       -22.9092
  47   2.0000      -0.839280       -22.8380
  48   2.0000      -0.838988       -22.8300
  49   2.0000      -0.838559       -22.8184
  50   2.0000      -0.836680       -22.7672
  51   2.0000      -0.675761       -18.3884
  52   2.0000      -0.672118       -18.2893
  53   2.0000      -0.653930       -17.7943
  54   2.0000      -0.650853       -17.7106
  55   2.0000      -0.648402       -17.6439
  56   2.0000      -0.565546       -15.3893
  57   2.0000      -0.562036       -15.2938
  58   2.0000      -0.553934       -15.0733
  59   2.0000      -0.546958       -14.8835
  60   2.0000      -0.540608       -14.7107
  61   2.0000      -0.537072       -14.6145
  62   2.0000      -0.533282       -14.5113
  63   2.0000      -0.530385       -14.4325
  64   2.0000      -0.524641       -14.2762
  65   2.0000      -0.520866       -14.1735
  66   2.0000      -0.516209       -14.0468
  67   2.0000      -0.511854       -13.9283
  68   2.0000      -0.509945       -13.8763
  69   2.0000      -0.498664       -13.5694
  70   2.0000      -0.495022       -13.4702
  71   2.0000      -0.493127       -13.4187
  72   2.0000      -0.489641       -13.3238
  73   2.0000      -0.487245       -13.2586
  74   2.0000      -0.485819       -13.2198
  75   2.0000      -0.483583       -13.1590
  76   2.0000      -0.480363       -13.0714
  77   2.0000      -0.478901       -13.0316
  78   2.0000      -0.477501       -12.9935
  79   2.0000      -0.474639       -12.9156
  80   2.0000      -0.471131       -12.8201
  81   2.0000      -0.467721       -12.7273
  82   2.0000      -0.424054       -11.5391
  83   2.0000      -0.421017       -11.4565
  84   2.0000      -0.414552       -11.2805
  85   2.0000      -0.410489       -11.1700
  86   2.0000      -0.407105       -11.0779
  87   2.0000      -0.404194       -10.9987
  88   2.0000      -0.400182       -10.8895
  89   2.0000      -0.398969       -10.8565
  90   2.0000      -0.395906       -10.7731
  91   2.0000      -0.395116       -10.7517
  92   2.0000      -0.365157        -9.9364
  93   2.0000      -0.360393        -9.8068
  94   2.0000      -0.315035        -8.5725
  95   2.0000      -0.302044        -8.2190
  96   2.0000      -0.270856        -7.3704
  97   2.0000      -0.263422        -7.1681
  98   2.0000      -0.233795        -6.3619
  99   2.0000      -0.199445        -5.4272
 100   0.0000       0.033369         0.9080
 101   0.0000       0.046413         1.2630
 102   0.0000       0.049246         1.3401
 103   0.0000       0.053402         1.4531
 104   0.0000       0.065579         1.7845

MULLIKEN ATOMIC CHARGES
-----------------------
   0 Ru:   -1.109044
   1 P :    1.636168
   2 P :    1.302726
   3 P :    1.507288
   4 P :    1.254439
   5 H :    0.054219
   6 C :   -0.652898
   7 C :    0.179642
   8 H :   -0.021299
   9 C :   -0.587430
  10 C :   -0.573122
  11 C :   -0.632032
  12 C :   -0.773468
  13 C :   -0.466336
  14 C :   -0.459556
  15 C :   -0.626211
  16 C :   -0.509627
  17 C :   -0.693797
  18 C :   -0.668440
  19 C :   -0.518219
  20 C :   -0.610058
  21 H :    0.045594
  22 H :    0.039088
  23 H :    0.044089
  24 H :    0.058499
  25 H :    0.111545
  26 H :    0.026749
  27 H :    0.051583
  28 H :    0.113122
  29 H :    0.041897
  30 H :    0.110131
  31 H :    0.037566
  32 H :    0.100804
  33 H :    0.066897
  34 H :    0.077240
  35 H :    0.096826
  36 H :    0.045991
  37 H :    0.082588
  38 H :    0.100128
  39 H :    0.071190
  40 H :    0.052117
  41 H :    0.139790
  42 H :    0.039619
  43 H :    0.115962
  44 H :    0.139081
  45 H :    0.031335
  46 H :    0.088783
  47 H :    0.104625
  48 H :    0.059588
  49 H :    0.083687
  50 H :    0.135372
  51 H :    0.123615
  52 H :    0.061250
  53 H :    0.114465
  54 H :    0.076349
  55 H :    0.045602
  56 H :    0.107737
  57 H :    0.071124
  58 H :    0.055422
Sum of atomic charges:    0.0000000

LOEWDIN ATOMIC CHARGES
----------------------
   0 Ru:    0.051654
   1 P :    0.811781
   2 P :    0.799861
   3 P :    0.853855
   4 P :    0.849549
   5 H :   -0.101126
   6 C :   -0.155211
   7 C :   -0.165778
   8 H :   -0.102783
   9 C :   -0.037169
  10 C :   -0.031330
  11 C :   -0.026484
  12 C :   -0.011242
  13 C :   -0.036965
  14 C :   -0.032333
  15 C :   -0.023482
  16 C :   -0.019189
  17 C :   -0.021853
  18 C :   -0.017130
  19 C :   -0.016369
  20 C :   -0.016655
  21 H :   -0.100242
  22 H :   -0.104222
  23 H :   -0.061355
  24 H :   -0.072155
  25 H :   -0.054742
  26 H :   -0.066515
  27 H :   -0.083352
  28 H :   -0.053931
  29 H :   -0.055086
  30 H :   -0.055169
  31 H :   -0.088821
  32 H :   -0.052973
  33 H :   -0.075917
  34 H :   -0.074573
  35 H :   -0.053753
  36 H :   -0.062196
  37 H :   -0.087026
  38 H :   -0.053071
  39 H :   -0.086918
  40 H :   -0.067890
  41 H :   -0.050258
  42 H :   -0.057049
  43 H :   -0.058225
  44 H :   -0.048404
  45 H :   -0.082132
  46 H :   -0.072936
  47 H :   -0.052169
  48 H :   -0.060478
  49 H :   -0.086587
  50 H :   -0.051262
  51 H :   -0.057085
  52 H :   -0.060767
  53 H :   -0.048628
  54 H :   -0.073383
  55 H :   -0.085425
  56 H :   -0.051133
  57 H :   -0.087907
  58 H :   -0.057868

  Mayer bond orders larger than 0.100000
B(  0-Ru,  1-P ) :   0.4204 B(  0-Ru,  2-P ) :   0.4467 B(  0-Ru,  3-P ) :   0.5446
B(  0-Ru,  4-P ) :   0.4578 B(  0-Ru,  5-H ) :   0.1071 B(  0-Ru,  6-C ) :   1.0860
B(  0-Ru,  7-C ) :   0.7687 B(  0-Ru, 11-C ) :   0.1730 B(  0-Ru, 21-H ) :   0.1347
B(  1-P ,  2-P ) :   0.3940 B(  1-P ,  4-P ) :   0.1666 B(  1-P ,  9-C ) :   0.5092
B(  1-P , 10-C ) :   0.5495 B(  1-P , 11-C ) :   0.6464 B(  2-P ,  4-P ) :   0.1265
B(  2-P ,  7-C ) :   0.1046 B(  2-P , 12-C ) :   0.6306 B(  2-P , 13-C ) :   0.2967
B(  2-P , 14-C ) :   0.3220 B(  3-P ,  4-P ) :   0.2198 B(  3-P ,  6-C ) :   0.1868
B(  3-P ,  7-C ) :  -0.2701 B(  3-P , 15-C ) :   0.4249 B(  3-P , 16-C ) :   0.5095
B(  3-P , 17-C ) :   0.5135 B(  4-P ,  6-C ) :   0.1716 B(  4-P ,  7-C ) :  -0.2316
B(  4-P , 18-C ) :   0.5310 B(  4-P , 19-C ) :   0.5567 B(  4-P , 20-C ) :   0.3938
B(  5-H ,  6-C ) :   1.0772 B(  6-C ,  7-C ) :   0.8785 B(  6-C , 21-H ) :   1.0346
B(  7-C ,  8-H ) :   1.0778 B(  7-C , 22-H ) :   1.0527 B(  9-C , 10-C ) :   0.1227
B(  9-C , 11-C ) :   0.1462 B(  9-C , 23-H ) :   1.0308 B(  9-C , 24-H ) :   1.0088
B(  9-C , 25-H ) :   1.0114 B( 10-C , 11-C ) :   0.1153 B( 10-C , 26-H ) :   1.0173
B( 10-C , 27-H ) :   1.0236 B( 10-C , 28-H ) :   1.0401 B( 11-C , 29-H ) :   1.0303
B( 11-C , 30-H ) :   1.0431 B( 11-C , 31-H ) :   0.9998 B( 12-C , 13-C ) :   0.1073
B( 12-C , 14-C ) :   0.1145 B( 12-C , 32-H ) :   1.0592 B( 12-C , 33-H ) :   1.0449
B( 12-C , 34-H ) :   1.0598 B( 13-C , 14-C ) :   0.1732 B( 13-C , 35-H ) :   1.0458
B( 13-C , 36-H ) :   1.0182 B( 13-C , 37-H ) :   0.9932 B( 14-C , 38-H ) :   1.0306
B( 14-C , 39-H ) :   0.9842 B( 14-C , 40-H ) :   1.0201 B( 15-C , 16-C ) :   0.1294
B( 15-C , 17-C ) :   0.1671 B( 15-C , 41-H ) :   1.0047 B( 15-C , 42-H ) :   1.0447
B( 15-C , 43-H ) :   0.9981 B( 16-C , 44-H ) :   0.9970 B( 16-C , 45-H ) :   1.0548
B( 16-C , 46-H ) :   0.9762 B( 17-C , 47-H ) :   1.0576 B( 17-C , 48-H ) :   1.0105
B( 17-C , 49-H ) :   1.0135 B( 18-C , 20-C ) :   0.1318 B( 18-C , 50-H ) :   0.9978
B( 18-C , 51-H ) :   1.0123 B( 18-C , 52-H ) :   1.0426 B( 19-C , 53-H ) :   1.0168
B( 19-C , 54-H ) :   0.9958 B( 19-C , 55-H ) :   1.0382 B( 20-C , 56-H ) :   1.0408
B( 20-C , 57-H ) :   1.0106 B( 20-C , 58-H ) :   1.0263

MP2 TOTAL ENERGY:    -2016.588640874 Eh
Dispersion correction           -0.095410265
FINAL SINGLE POINT ENERGY     -2016.684051139443

DIPOLE MOMENT
-------------
                                X             Y             Z
Electronic contribution:     -1.78935      -5.09917     -26.64353
Nuclear contribution   :      1.82563       5.30534      27.72313
                        -----------------------------------------
Total Dipole Moment    :      0.03628       0.20617       1.07961
                        -----------------------------------------
Magnitude (a.u.)       :      1.09971
Magnitude (Debye)      :      2.79525

Rotational constants in cm-1:     0.009351     0.007693     0.006898
Rotational constants in MHz :   280.325632   230.636339   206.809498

                             ****ORCA TERMINATED NORMALLY****
TOTAL RUN TIME: 0 days 0 hours 6 minutes 45 seconds 325 msec
