                         Program Version 4.2.0 -  RELEASE  -
|  1> #
|  2> # MOR17_ed36 ri-DSD-BLYP/2013-D3BJ/Def2-TZVPPD
|  3> #
|  4> ! rijk ri-dsd-blyp/2013 d3bj def2-tzvppd def2/jk def2-tzvppd/c grid4 nofinalgrid
|  5>
|  6> *xyz 0 1
|  7> Mo      -0.000266    0.073285   -0.001759
|  8> C        1.725893   -0.773990   -1.226681
|  9> C        2.211696    0.414668   -0.610995
| 10> C        2.192326    0.250811    0.809261
| 11> C        1.685230   -1.035926    1.105715
| 12> C        1.413513   -1.680058   -0.153190
| 13> H        1.704188   -0.987838   -2.284881
| 14> H        2.536107    1.301869   -1.133102
| 15> H        2.493190    0.988099    1.537778
| 16> H        1.573828   -1.467340    2.089978
| 17> H        1.067801   -2.694661   -0.276651
| 18> C       -1.407221   -1.685804    0.112781
| 19> C       -1.709531   -0.814976    1.218351
| 20> C       -2.202710    0.272498   -0.775202
| 21> C       -1.695077   -1.002456   -1.122045
| 22> H       -1.669608   -1.061100    2.269076
| 23> H       -2.528690    1.258371    1.205067
| 24> C       -2.207491    0.390536    0.649493
| 25> H       -1.601566   -1.403288   -2.120864
| 26> H       -1.058155   -2.702954    0.200059
| 27> C        0.040880    2.214506    0.720862
| 28> H        0.978366    2.504794    1.184780
| 29> H       -0.817411    2.527371    1.307308
| 30> C       -0.044841    2.215313   -0.718681
| 31> H        0.814149    2.526211   -1.305102
| 32> H       -0.980875    2.509977   -1.182445
| 33> H       -2.516160    1.031799   -1.475134
| 34> *
| 35>
| 36> %maxcore 5000
| 37>
| 38> %pal
| 39> nprocs = 24
| 40> end
| 41>
| 42>
| 43>                          ****END OF INPUT****

CARTESIAN COORDINATES (ANGSTROEM)
---------------------------------
  Mo    -0.000266    0.073285   -0.001759
  C      1.725893   -0.773990   -1.226681
  C      2.211696    0.414668   -0.610995
  C      2.192326    0.250811    0.809261
  C      1.685230   -1.035926    1.105715
  C      1.413513   -1.680058   -0.153190
  H      1.704188   -0.987838   -2.284881
  H      2.536107    1.301869   -1.133102
  H      2.493190    0.988099    1.537778
  H      1.573828   -1.467340    2.089978
  H      1.067801   -2.694661   -0.276651
  C     -1.407221   -1.685804    0.112781
  C     -1.709531   -0.814976    1.218351
  C     -2.202710    0.272498   -0.775202
  C     -1.695077   -1.002456   -1.122045
  H     -1.669608   -1.061100    2.269076
  H     -2.528690    1.258371    1.205067
  C     -2.207491    0.390536    0.649493
  H     -1.601566   -1.403288   -2.120864
  H     -1.058155   -2.702954    0.200059
  C      0.040880    2.214506    0.720862
  H      0.978366    2.504794    1.184780
  H     -0.817411    2.527371    1.307308
  C     -0.044841    2.215313   -0.718681
  H      0.814149    2.526211   -1.305102
  H     -0.980875    2.509977   -1.182445
  H     -2.516160    1.031799   -1.475134

 Total Charge           Charge          ....    0
 Multiplicity           Mult            ....    1
 Number of Electrons    NEL             ....  100
 Basis Dimension        Dim             ....  738

ORBITAL ENERGIES
----------------

  NO   OCC          E(Eh)            E(eV)
   0   2.0000     -10.865830      -295.6743
   1   2.0000     -10.865673      -295.6700
   2   2.0000     -10.865487      -295.6649
   3   2.0000     -10.865410      -295.6628
   4   2.0000     -10.864535      -295.6390
   5   2.0000     -10.864087      -295.6268
   6   2.0000     -10.863760      -295.6180
   7   2.0000     -10.863759      -295.6179
   8   2.0000     -10.861808      -295.5648
   9   2.0000     -10.861427      -295.5545
  10   2.0000     -10.820279      -294.4348
  11   2.0000     -10.819441      -294.4119
  12   2.0000      -2.851056       -77.5812
  13   2.0000      -1.771165       -48.1959
  14   2.0000      -1.754635       -47.7460
  15   2.0000      -1.732878       -47.1540
  16   2.0000      -1.080085       -29.3906
  17   2.0000      -1.061610       -28.8879
  18   2.0000      -0.898009       -24.4361
  19   2.0000      -0.884119       -24.0581
  20   2.0000      -0.880699       -23.9650
  21   2.0000      -0.880199       -23.9514
  22   2.0000      -0.875720       -23.8296
  23   2.0000      -0.709731       -19.3128
  24   2.0000      -0.689825       -18.7711
  25   2.0000      -0.674809       -18.3625
  26   2.0000      -0.673523       -18.3275
  27   2.0000      -0.672051       -18.2874
  28   2.0000      -0.660034       -17.9604
  29   2.0000      -0.648954       -17.6589
  30   2.0000      -0.543912       -14.8006
  31   2.0000      -0.518283       -14.1032
  32   2.0000      -0.514355       -13.9963
  33   2.0000      -0.512879       -13.9561
  34   2.0000      -0.509131       -13.8542
  35   2.0000      -0.503666       -13.7054
  36   2.0000      -0.499106       -13.5814
  37   2.0000      -0.484534       -13.1848
  38   2.0000      -0.483473       -13.1560
  39   2.0000      -0.480434       -13.0733
  40   2.0000      -0.477423       -12.9913
  41   2.0000      -0.449055       -12.2194
  42   2.0000      -0.425358       -11.5746
  43   2.0000      -0.338615        -9.2142
  44   2.0000      -0.332779        -9.0554
  45   2.0000      -0.332500        -9.0478
  46   2.0000      -0.315484        -8.5848
  47   2.0000      -0.312812        -8.5120
  48   2.0000      -0.242890        -6.6094
  49   2.0000      -0.229570        -6.2469
  50   0.0000       0.044168         1.2019
  51   0.0000       0.054259         1.4765
  52   0.0000       0.055712         1.5160
  53   0.0000       0.056450         1.5361
  54   0.0000       0.073099         1.9891

MULLIKEN ATOMIC CHARGES
-----------------------
   0 Mo:   -0.661135
   1 C :    0.169031
   2 C :   -0.096491
   3 C :   -0.049615
   4 C :    0.272797
   5 C :   -0.117007
   6 H :   -0.087819
   7 H :    0.077658
   8 H :    0.021623
   9 H :   -0.014509
  10 H :    0.124291
  11 C :   -0.115037
  12 C :    0.150949
  13 C :   -0.057647
  14 C :    0.269544
  15 H :   -0.083452
  16 H :    0.075010
  17 C :   -0.080894
  18 H :   -0.024229
  19 H :    0.129849
  20 C :    0.038828
  21 H :    0.021179
  22 H :   -0.015114
  23 C :    0.021151
  24 H :   -0.022369
  25 H :    0.022676
  26 H :    0.030731
Sum of atomic charges:    0.0000000

LOEWDIN ATOMIC CHARGES
----------------------
   0 Mo:    1.088119
   1 C :   -0.063192
   2 C :   -0.079936
   3 C :   -0.070134
   4 C :   -0.059111
   5 C :   -0.091090
   6 H :   -0.002352
   7 H :    0.000609
   8 H :    0.000283
   9 H :    0.002209
  10 H :   -0.005973
  11 C :   -0.091434
  12 C :   -0.063661
  13 C :   -0.071245
  14 C :   -0.059135
  15 H :   -0.001924
  16 H :    0.000527
  17 C :   -0.077730
  18 H :    0.001514
  19 H :   -0.006151
  20 C :   -0.035924
  21 H :   -0.068842
  22 H :   -0.069294
  23 C :   -0.037089
  24 H :   -0.069643
  25 H :   -0.069452
  26 H :    0.000052

  Mayer bond orders larger than 0.100000
B(  0-Mo,  1-C ) :   0.2180 B(  0-Mo,  2-C ) :   0.6529 B(  0-Mo,  3-C ) :   0.4653
B(  0-Mo,  4-C ) :   0.2526 B(  0-Mo,  5-C ) :   0.7039 B(  0-Mo, 11-C ) :   0.7087
B(  0-Mo, 12-C ) :   0.2342 B(  0-Mo, 13-C ) :   0.4904 B(  0-Mo, 14-C ) :   0.2438
B(  0-Mo, 17-C ) :   0.6287 B(  0-Mo, 20-C ) :   0.7234 B(  0-Mo, 23-C ) :   0.7338
B(  1-C ,  2-C ) :   1.2738 B(  1-C ,  3-C ) :  -0.2012 B(  1-C ,  4-C ) :  -0.1306
B(  1-C ,  5-C ) :   1.1687 B(  1-C ,  6-H ) :   0.9983 B(  1-C , 11-C ) :  -0.1052
B(  1-C , 12-C ) :   0.1474 B(  1-C , 14-C ) :   0.1752 B(  1-C , 17-C ) :  -0.1577
B(  2-C ,  3-C ) :   1.2214 B(  2-C ,  4-C ) :  -0.1668 B(  2-C ,  7-H ) :   0.9081
B(  2-C , 12-C ) :  -0.1689 B(  3-C ,  4-C ) :   1.2909 B(  3-C ,  8-H ) :   0.9126
B(  3-C , 20-C ) :   0.1165 B(  3-C , 23-C ) :  -0.1133 B(  4-C ,  5-C ) :   1.2288
B(  4-C ,  9-H ) :   0.9259 B(  4-C , 11-C ) :  -0.1080 B(  4-C , 12-C ) :   0.1617
B(  4-C , 14-C ) :   0.1032 B(  5-C , 10-H ) :   0.9016 B(  5-C , 11-C ) :   0.2538
B(  5-C , 12-C ) :  -0.1040 B(  5-C , 14-C ) :  -0.1069 B( 11-C , 12-C ) :   1.1735
B( 11-C , 14-C ) :   1.2299 B( 11-C , 19-H ) :   0.8988 B( 12-C , 13-C ) :  -0.2057
B( 12-C , 14-C ) :  -0.1376 B( 12-C , 15-H ) :   0.9947 B( 12-C , 17-C ) :   1.2839
B( 13-C , 14-C ) :   1.2860 B( 13-C , 17-C ) :   1.2264 B( 13-C , 20-C ) :  -0.1164
B( 13-C , 23-C ) :   0.1240 B( 13-C , 26-H ) :   0.9118 B( 14-C , 17-C ) :  -0.1621
B( 14-C , 18-H ) :   0.9339 B( 16-H , 17-C ) :   0.9043 B( 20-C , 21-H ) :   1.0316
B( 20-C , 22-H ) :   1.0494 B( 20-C , 23-C ) :   0.8643 B( 23-C , 24-H ) :   1.0562
B( 23-C , 25-H ) :   1.0301

MP2 TOTAL ENERGY:     -533.392012602 Eh
Dispersion correction           -0.043238511
FINAL SINGLE POINT ENERGY      -533.435251112560

DIPOLE MOMENT
-------------
                                X             Y             Z
Electronic contribution:     -0.01331       0.76860      -0.11005
Nuclear contribution   :      0.01285      -1.32377       0.12031
                        -----------------------------------------
Total Dipole Moment    :     -0.00046      -0.55517       0.01026
                        -----------------------------------------
Magnitude (a.u.)       :      0.55526
Magnitude (Debye)      :      1.41137

Rotational constants in cm-1:     0.040116     0.028148     0.022583
Rotational constants in MHz :  1202.641010   843.851559   677.032187

                             ****ORCA TERMINATED NORMALLY****
TOTAL RUN TIME: 0 days 0 hours 1 minutes 14 seconds 454 msec
