                         Program Version 4.2.0 -  RELEASE  -
|  1> #
|  2> # MOR29_pr11 ri-DSD-BLYP/2013-D3BJ/Def2-TZVPPD
|  3> #
|  4> ! rijk ri-dsd-blyp/2013 d3bj def2-tzvppd def2/jk def2-tzvppd/c grid4 nofinalgrid
|  5>
|  6> *xyz 0 1
|  7> C       -1.039290   -2.639432    0.178033
|  8> C       -2.178017   -3.305635   -0.258724
|  9> C       -3.296391   -2.550827   -0.605540
| 10> C       -3.231094   -1.166811   -0.503382
| 11> H       -0.140242   -3.178187    0.457229
| 12> H       -2.180740   -4.388297   -0.324253
| 13> H       -4.206388   -3.031472   -0.950846
| 14> H       -4.092575   -0.563880   -0.765153
| 15> N       -0.970920   -1.306381    0.272680
| 16> C       -2.050199   -0.559703   -0.062217
| 17> C       -1.896627    0.903347    0.053727
| 18> N       -0.715899    1.344389    0.547476
| 19> C       -0.493208    2.660516    0.650101
| 20> C       -2.657172    3.172580   -0.229603
| 21> C       -1.435330    3.611046    0.276469
| 22> H        0.481431    2.944320    1.031789
| 23> H       -1.207232    4.666962    0.373432
| 24> C       -2.888209    1.807210   -0.342538
| 25> H       -3.826394    1.449184   -0.749672
| 26> H       -3.416704    3.882938   -0.540755
| 27> Pd       0.796966   -0.183618    0.920224
| 28> C        2.296006    1.038742    1.594093
| 29> H        1.829551    1.776866    2.255021
| 30> H        2.734263    1.506656    0.710942
| 31> H        3.050202    0.480142    2.149825
| 32> C        2.162541   -1.690695    1.159536
| 33> H        3.086547   -1.399047    0.660601
| 34> H        1.744149   -2.568037    0.656862
| 35> H        2.334771   -1.896294    2.218292
| 36> I        1.451603    0.093477   -1.772045
| 37> C        0.284011   -0.444486    2.913651
| 38> H       -0.123661   -1.453796    3.016265
| 39> H       -0.476481    0.304111    3.153737
| 40> H        1.159721   -0.321172    3.551993
| 41> *
| 42>
| 43> %maxcore 5000
| 44>
| 45> %pal
| 46> nprocs = 24
| 47> end
| 48>
| 49>
| 50>                          ****END OF INPUT****

CARTESIAN COORDINATES (ANGSTROEM)
---------------------------------
  C     -1.039290   -2.639432    0.178033
  C     -2.178017   -3.305635   -0.258724
  C     -3.296391   -2.550827   -0.605540
  C     -3.231094   -1.166811   -0.503382
  H     -0.140242   -3.178187    0.457229
  H     -2.180740   -4.388297   -0.324253
  H     -4.206388   -3.031472   -0.950846
  H     -4.092575   -0.563880   -0.765153
  N     -0.970920   -1.306381    0.272680
  C     -2.050199   -0.559703   -0.062217
  C     -1.896627    0.903347    0.053727
  N     -0.715899    1.344389    0.547476
  C     -0.493208    2.660516    0.650101
  C     -2.657172    3.172580   -0.229603
  C     -1.435330    3.611046    0.276469
  H      0.481431    2.944320    1.031789
  H     -1.207232    4.666962    0.373432
  C     -2.888209    1.807210   -0.342538
  H     -3.826394    1.449184   -0.749672
  H     -3.416704    3.882938   -0.540755
  Pd     0.796966   -0.183618    0.920224
  C      2.296006    1.038742    1.594093
  H      1.829551    1.776866    2.255021
  H      2.734263    1.506656    0.710942
  H      3.050202    0.480142    2.149825
  C      2.162541   -1.690695    1.159536
  H      3.086547   -1.399047    0.660601
  H      1.744149   -2.568037    0.656862
  H      2.334771   -1.896294    2.218292
  I      1.451603    0.093477   -1.772045
  C      0.284011   -0.444486    2.913651
  H     -0.123661   -1.453796    3.016265
  H     -0.476481    0.304111    3.153737
  H      1.159721   -0.321172    3.551993

 Total Charge           Charge          ....    0
 Multiplicity           Mult            ....    1
 Number of Electrons    NEL             ....  152
 Basis Dimension        Dim             ....  959

ORBITAL ENERGIES
----------------

  NO   OCC          E(Eh)            E(eV)
   0   2.0000     -15.175664      -412.9508
   1   2.0000     -15.174820      -412.9278
   2   2.0000     -10.947022      -297.8836
   3   2.0000     -10.946020      -297.8563
   4   2.0000     -10.930314      -297.4290
   5   2.0000     -10.929095      -297.3958
   6   2.0000     -10.912180      -296.9355
   7   2.0000     -10.911216      -296.9093
   8   2.0000     -10.902049      -296.6598
   9   2.0000     -10.901255      -296.6382
  10   2.0000     -10.896909      -296.5200
  11   2.0000     -10.895729      -296.4879
  12   2.0000     -10.839095      -294.9468
  13   2.0000     -10.834577      -294.8238
  14   2.0000     -10.832984      -294.7805
  15   2.0000      -7.313020      -198.9974
  16   2.0000      -5.224088      -142.1546
  17   2.0000      -5.220786      -142.0648
  18   2.0000      -5.220712      -142.0628
  19   2.0000      -3.889050      -105.8264
  20   2.0000      -2.471565       -67.2547
  21   2.0000      -2.469330       -67.1939
  22   2.0000      -2.468698       -67.1767
  23   2.0000      -2.046636       -55.6918
  24   2.0000      -2.045351       -55.6568
  25   2.0000      -2.045281       -55.6549
  26   2.0000      -2.041944       -55.5641
  27   2.0000      -2.041937       -55.5639
  28   2.0000      -1.207542       -32.8589
  29   2.0000      -1.178632       -32.0722
  30   2.0000      -1.029385       -28.0110
  31   2.0000      -1.020532       -27.7701
  32   2.0000      -1.013459       -27.5776
  33   2.0000      -0.951662       -25.8960
  34   2.0000      -0.847959       -23.0741
  35   2.0000      -0.839562       -22.8456
  36   2.0000      -0.835937       -22.7470
  37   2.0000      -0.812937       -22.1212
  38   2.0000      -0.810631       -22.0584
  39   2.0000      -0.796309       -21.6687
  40   2.0000      -0.784032       -21.3346
  41   2.0000      -0.720601       -19.6085
  42   2.0000      -0.706920       -19.2363
  43   2.0000      -0.660178       -17.9644
  44   2.0000      -0.659346       -17.9417
  45   2.0000      -0.638581       -17.3767
  46   2.0000      -0.618796       -16.8383
  47   2.0000      -0.596107       -16.2209
  48   2.0000      -0.580539       -15.7973
  49   2.0000      -0.569674       -15.5016
  50   2.0000      -0.565693       -15.3933
  51   2.0000      -0.560860       -15.2618
  52   2.0000      -0.535190       -14.5632
  53   2.0000      -0.529780       -14.4160
  54   2.0000      -0.521916       -14.2020
  55   2.0000      -0.515635       -14.0311
  56   2.0000      -0.509115       -13.8537
  57   2.0000      -0.502531       -13.6746
  58   2.0000      -0.475508       -12.9392
  59   2.0000      -0.473368       -12.8810
  60   2.0000      -0.469735       -12.7821
  61   2.0000      -0.467349       -12.7172
  62   2.0000      -0.454571       -12.3695
  63   2.0000      -0.423698       -11.5294
  64   2.0000      -0.415710       -11.3120
  65   2.0000      -0.413971       -11.2647
  66   2.0000      -0.401830       -10.9344
  67   2.0000      -0.393794       -10.7157
  68   2.0000      -0.381359       -10.3773
  69   2.0000      -0.379802       -10.3350
  70   2.0000      -0.355969        -9.6864
  71   2.0000      -0.335628        -9.1329
  72   2.0000      -0.322882        -8.7861
  73   2.0000      -0.261888        -7.1263
  74   2.0000      -0.253559        -6.8997
  75   2.0000      -0.252919        -6.8823
  76   0.0000      -0.021780        -0.5927
  77   0.0000       0.011248         0.3061
  78   0.0000       0.025557         0.6954
  79   0.0000       0.028191         0.7671
  80   0.0000       0.037487         1.0201

MULLIKEN ATOMIC CHARGES
-----------------------
   0 C :    0.314752
   1 C :   -0.215252
   2 C :    0.123695
   3 C :   -0.217532
   4 H :   -0.131214
   5 H :   -0.058878
   6 H :   -0.021615
   7 H :   -0.131367
   8 N :    0.514243
   9 C :    0.531908
  10 C :    0.044570
  11 N :    0.688499
  12 C :    0.257215
  13 C :    0.062006
  14 C :   -0.192384
  15 H :   -0.152415
  16 H :   -0.064438
  17 C :   -0.210298
  18 H :   -0.129336
  19 H :   -0.022325
  20 Pd:   -0.502933
  21 C :   -0.102925
  22 H :    0.059135
  23 H :    0.004831
  24 H :    0.085425
  25 C :    0.007628
  26 H :    0.046680
  27 H :   -0.026747
  28 H :    0.048215
  29 I :   -0.616229
  30 C :   -0.053860
  31 H :    0.009210
  32 H :    0.009572
  33 H :    0.042163
Sum of atomic charges:    0.0000000

LOEWDIN ATOMIC CHARGES
----------------------
   0 C :   -0.008928
   1 C :    0.063363
   2 C :    0.059768
   3 C :    0.086893
   4 H :    0.001146
   5 H :    0.006329
   6 H :    0.012425
   7 H :   -0.000456
   8 N :    0.008530
   9 C :   -0.167597
  10 C :   -0.174219
  11 N :   -0.001272
  12 C :   -0.010911
  13 C :    0.060548
  14 C :    0.063999
  15 H :    0.004688
  16 H :    0.006494
  17 C :    0.087168
  18 H :   -0.000360
  19 H :    0.012439
  20 Pd:    0.689130
  21 C :    0.033227
  22 H :   -0.094250
  23 H :   -0.118941
  24 H :   -0.086345
  25 C :    0.025957
  26 H :   -0.103446
  27 H :   -0.109312
  28 H :   -0.086313
  29 I :   -0.067487
  30 C :    0.084982
  31 H :   -0.092397
  32 H :   -0.091163
  33 H :   -0.093687

  Mayer bond orders larger than 0.100000
B(  0-C ,  1-C ) :   1.1189 B(  0-C ,  4-H ) :   1.1169 B(  0-C ,  8-N ) :   1.5966
B(  0-C , 20-Pd) :  -0.1642 B(  1-C ,  2-C ) :   1.0890 B(  1-C ,  4-H ) :  -0.1549
B(  1-C ,  5-H ) :   1.1544 B(  1-C ,  6-H ) :  -0.1189 B(  1-C ,  8-N ) :  -0.3012
B(  1-C , 20-Pd) :   0.1457 B(  2-C ,  3-C ) :   0.9558 B(  2-C ,  6-H ) :   1.1117
B(  2-C ,  7-H ) :  -0.1963 B(  2-C ,  8-N ) :   0.1354 B(  3-C ,  6-H ) :  -0.1080
B(  3-C ,  7-H ) :   1.2538 B(  3-C ,  8-N ) :  -0.3918 B(  3-C ,  9-C ) :   0.9414
B(  3-C , 10-C ) :  -0.6188 B(  3-C , 20-Pd) :   0.2345 B(  4-H ,  8-N ) :  -0.1065
B(  7-H ,  9-C ) :  -0.1290 B(  8-N ,  9-C ) :   1.5465 B(  8-N , 10-C ) :   0.2157
B(  8-N , 11-N ) :  -0.1550 B(  8-N , 20-Pd) :   0.3552 B(  9-C , 10-C ) :   0.8572
B(  9-C , 11-N ) :   0.3257 B(  9-C , 12-C ) :   0.1009 B(  9-C , 17-C ) :  -0.7236
B(  9-C , 20-Pd) :  -0.2317 B(  9-C , 29-I ) :  -0.1047 B( 10-C , 11-N ) :   1.4826
B( 10-C , 17-C ) :   1.0370 B( 10-C , 18-H ) :  -0.1390 B( 10-C , 29-I ) :   0.1069
B( 11-N , 12-C ) :   1.5841 B( 11-N , 13-C ) :   0.1068 B( 11-N , 14-C ) :  -0.3415
B( 11-N , 17-C ) :  -0.4681 B( 11-N , 20-Pd) :   0.2464 B( 11-N , 30-C ) :  -0.1097
B( 12-C , 14-C ) :   1.1032 B( 12-C , 15-H ) :   1.1558 B( 12-C , 20-Pd) :  -0.1313
B( 13-C , 14-C ) :   1.0977 B( 13-C , 16-H ) :  -0.1013 B( 13-C , 17-C ) :   0.9489
B( 13-C , 18-H ) :  -0.1961 B( 13-C , 19-H ) :   1.1138 B( 14-C , 15-H ) :  -0.1411
B( 14-C , 16-H ) :   1.1510 B( 14-C , 19-H ) :  -0.1248 B( 14-C , 20-Pd) :   0.1351
B( 17-C , 18-H ) :   1.2461 B( 17-C , 19-H ) :  -0.1036 B( 17-C , 20-Pd) :   0.2844
B( 20-Pd, 21-C ) :   0.8244 B( 20-Pd, 25-C ) :   0.7789 B( 20-Pd, 27-H ) :   0.1007
B( 20-Pd, 29-I ) :   0.8350 B( 20-Pd, 30-C ) :   0.7049 B( 20-Pd, 31-H ) :   0.1031
B( 20-Pd, 32-H ) :   0.1413 B( 21-C , 22-H ) :   1.0134 B( 21-C , 23-H ) :   1.0419
B( 21-C , 24-H ) :   1.0091 B( 21-C , 29-I ) :  -0.1365 B( 23-H , 29-I ) :   0.1474
B( 25-C , 26-H ) :   1.0336 B( 25-C , 27-H ) :   1.0342 B( 25-C , 28-H ) :   1.0171
B( 25-C , 29-I ) :  -0.1205 B( 29-I , 30-C ) :   0.1243 B( 30-C , 31-H ) :   1.0233
B( 30-C , 32-H ) :   1.0257 B( 30-C , 33-H ) :   1.0610

MP2 TOTAL ENERGY:    -1039.836870998 Eh
Dispersion correction           -0.053009359
FINAL SINGLE POINT ENERGY     -1039.889880356369

DIPOLE MOMENT
-------------
                                X             Y             Z
Electronic contribution:    145.06530      -3.88664     -70.51046
Nuclear contribution   :   -148.61747       4.04670      71.83695
                        -----------------------------------------
Total Dipole Moment    :     -3.55218       0.16006       1.32649
                        -----------------------------------------
Magnitude (a.u.)       :      3.79515
Magnitude (Debye)      :      9.64650

Rotational constants in cm-1:     0.010327     0.008787     0.007812
Rotational constants in MHz :   309.600948   263.417504   234.204311

                             ****ORCA TERMINATED NORMALLY****
TOTAL RUN TIME: 0 days 0 hours 3 minutes 33 seconds 4 msec
