                         Program Version 4.2.0 -  RELEASE  -
|  1> #
|  2> # MOR21_mecn ri-DSD-BLYP/2013-D3BJ/Def2-TZVPPD
|  3> #
|  4> ! rijk ri-dsd-blyp/2013 d3bj def2-tzvppd def2/jk def2-tzvppd/c grid4 nofinalgrid
|  5>
|  6> *xyz 0 1
|  7> N        1.434594    0.083513   -0.053227
|  8> C        0.278345    0.016206   -0.010325
|  9> C       -1.176577   -0.068494    0.043652
| 10> H       -1.556498   -0.572512   -0.849824
| 11> H       -1.609231    0.934929    0.094890
| 12> H       -1.487035   -0.633283    0.927565
| 13> *
| 14>
| 15> %maxcore 5000
| 16>
| 17> %pal
| 18> nprocs = 24
| 19> end
| 20>
| 21>
| 22>                          ****END OF INPUT****

CARTESIAN COORDINATES (ANGSTROEM)
---------------------------------
  N      1.434594    0.083513   -0.053227
  C      0.278345    0.016206   -0.010325
  C     -1.176577   -0.068494    0.043652
  H     -1.556498   -0.572512   -0.849824
  H     -1.609231    0.934929    0.094890
  H     -1.487035   -0.633283    0.927565

 Total Charge           Charge          ....    0
 Multiplicity           Mult            ....    1
 Number of Electrons    NEL             ....   22
 Basis Dimension        Dim             ....  162

ORBITAL ENERGIES
----------------

  NO   OCC          E(Eh)            E(eV)
   0   2.0000     -15.124796      -411.5666
   1   2.0000     -10.910277      -296.8837
   2   2.0000     -10.902793      -296.6801
   3   2.0000      -1.110681       -30.2232
   4   2.0000      -0.951148       -25.8821
   5   2.0000      -0.638834       -17.3836
   6   2.0000      -0.575839       -15.6694
   7   2.0000      -0.575835       -15.6693
   8   2.0000      -0.491834       -13.3835
   9   2.0000      -0.419467       -11.4143
  10   2.0000      -0.419466       -11.4143
  11   0.0000       0.033281         0.9056
  12   0.0000       0.078421         2.1339
  13   0.0000       0.101758         2.7690
  14   0.0000       0.101759         2.7690
  15   0.0000       0.134451         3.6586

MULLIKEN ATOMIC CHARGES
-----------------------
   0 N :   -0.267609
   1 C :    0.037275
   2 C :   -0.038154
   3 H :    0.089528
   4 H :    0.089563
   5 H :    0.089397
Sum of atomic charges:    0.0000000

LOEWDIN ATOMIC CHARGES
----------------------
   0 N :    0.107788
   1 C :   -0.226307
   2 C :    0.132480
   3 H :   -0.004653
   4 H :   -0.004654
   5 H :   -0.004655

  Mayer bond orders larger than 0.100000
B(  0-N ,  1-C ) :   2.5656 B(  1-C ,  2-C ) :   0.8979 B(  2-C ,  3-H ) :   0.9848
B(  2-C ,  4-H ) :   0.9846 B(  2-C ,  5-H ) :   0.9848

MP2 TOTAL ENERGY:     -132.644116549 Eh
Dispersion correction           -0.002876095
FINAL SINGLE POINT ENERGY      -132.646992643866

DIPOLE MOMENT
-------------
                                X             Y             Z
Electronic contribution:      3.02983       0.17639      -0.11241
Nuclear contribution   :     -4.67428      -0.27212       0.17343
                        -----------------------------------------
Total Dipole Moment    :     -1.64445      -0.09573       0.06102
                        -----------------------------------------
Magnitude (a.u.)       :      1.64836
Magnitude (Debye)      :      4.18980

Rotational constants in cm-1:     5.279638     0.306561     0.306561
Rotational constants in MHz : 158279.554854  9190.460473  9190.452676

                             ****ORCA TERMINATED NORMALLY****
TOTAL RUN TIME: 0 days 0 hours 0 minutes 3 seconds 757 msec
