                         Program Version 4.2.0 -  RELEASE  -
|  1> #
|  2> # MOR28_pr09 ri-DSD-BLYP/2013-D3BJ/Def2-TZVPPD
|  3> #
|  4> ! rijk ri-dsd-blyp/2013 d3bj def2-tzvppd def2/jk def2-tzvppd/c grid4 nofinalgrid
|  5>
|  6> *xyz 0 1
|  7> Rh       0.002553    0.015324   -0.037445
|  8> P       -2.290286    0.102034   -0.002141
|  9> P        2.295185    0.104741   -0.029108
| 10> H       -0.000447    1.293328    0.830281
| 11> H        0.001130    1.304527   -0.889045
| 12> Cl       0.007749   -2.380443   -0.037879
| 13> C        3.048741    1.714400   -0.468454
| 14> C        3.042509   -0.273930    1.598336
| 15> C        3.097153   -1.069215   -1.172055
| 16> C       -3.110022   -0.330980   -1.580554
| 17> C       -3.050128   -1.025999    1.213911
| 18> C       -3.019556    1.731005    0.405513
| 19> C        4.221249    1.798414   -1.230361
| 20> C        4.789108    3.041134   -1.513476
| 21> C        4.197347    4.208872   -1.032572
| 22> C        3.028536    4.131819   -0.272310
| 23> C        2.452968    2.893237    0.001453
| 24> H        4.686057    0.892043   -1.605584
| 25> H        5.694526    3.094809   -2.111614
| 26> H        4.640059    5.175809   -1.254830
| 27> H        2.559280    5.038271    0.099833
| 28> H        1.532532    2.831516    0.574445
| 29> C        2.492740   -1.274577   -2.419700
| 30> C        3.069210   -2.141848   -3.343202
| 31> C        4.245283   -2.823200   -3.021963
| 32> C        4.842886   -2.633499   -1.775820
| 33> C        4.272633   -1.757382   -0.851682
| 34> H        1.559916   -0.765736   -2.648777
| 35> H        2.592837   -2.299617   -4.306681
| 36> H        4.688326   -3.509606   -3.738122
| 37> H        5.750981   -3.171899   -1.518950
| 38> H        4.733770   -1.615306    0.121218
| 39> C        2.573432   -1.401325    2.291237
| 40> C        3.112349   -1.729837    3.532773
| 41> C        4.110733   -0.934394    4.100320
| 42> C        4.573407    0.190471    3.418246
| 43> C        4.043987    0.520908    2.169837
| 44> H        1.789551   -2.010529    1.847481
| 45> H        2.746524   -2.605505    4.061892
| 46> H        4.523765   -1.189174    5.072491
| 47> H        5.347947    0.814312    3.855909
| 48> H        4.408962    1.396682    1.642408
| 49> C       -4.114004    1.861395    1.269146
| 50> C       -4.661457    3.119187    1.526531
| 51> C       -4.128475    4.254505    0.917253
| 52> C       -3.037090    4.130954    0.054341
| 53> C       -2.480194    2.878757   -0.192845
| 54> H       -4.534614    0.980084    1.743054
| 55> H       -5.505661    3.209295    2.204432
| 56> H       -4.556024    5.232793    1.118339
| 57> H       -2.613755    5.012384   -0.419158
| 58> H       -1.618255    2.782567   -0.846864
| 59> C       -4.156822    0.429958   -2.116482
| 60> C       -4.751801    0.052668   -3.321119
| 61> C       -4.309469   -1.085441   -3.994829
| 62> C       -3.265632   -1.846455   -3.463206
| 63> C       -2.661736   -1.471384   -2.265369
| 64> H       -4.506373    1.315520   -1.594998
| 65> H       -5.561640    0.650007   -3.730969
| 66> H       -4.773990   -1.377169   -4.932751
| 67> H       -2.915705   -2.732129   -3.986302
| 68> H       -1.843939   -2.054854   -1.849211
| 69> C       -2.377196   -1.225504    2.426817
| 70> C       -2.923708   -2.054207    3.402951
| 71> C       -4.138807   -2.701607    3.169380
| 72> C       -4.805427   -2.517892    1.957599
| 73> C       -4.264583   -1.681339    0.980942
| 74> H       -1.416572   -0.742639    2.587014
| 75> H       -2.394478   -2.207926    4.339105
| 76> H       -4.559549   -3.357196    3.926721
| 77> H       -5.744700   -3.030292    1.768738
| 78> H       -4.779554   -1.544060    0.034665
| 79> *
| 80>
| 81> %maxcore 5000
| 82>
| 83> %pal
| 84> nprocs = 24
| 85> end
| 86>
| 87>
| 88>                          ****END OF INPUT****

CARTESIAN COORDINATES (ANGSTROEM)
---------------------------------
  Rh     0.002553    0.015324   -0.037445
  P     -2.290286    0.102034   -0.002141
  P      2.295185    0.104741   -0.029108
  H     -0.000447    1.293328    0.830281
  H      0.001130    1.304527   -0.889045
  Cl     0.007749   -2.380443   -0.037879
  C      3.048741    1.714400   -0.468454
  C      3.042509   -0.273930    1.598336
  C      3.097153   -1.069215   -1.172055
  C     -3.110022   -0.330980   -1.580554
  C     -3.050128   -1.025999    1.213911
  C     -3.019556    1.731005    0.405513
  C      4.221249    1.798414   -1.230361
  C      4.789108    3.041134   -1.513476
  C      4.197347    4.208872   -1.032572
  C      3.028536    4.131819   -0.272310
  C      2.452968    2.893237    0.001453
  H      4.686057    0.892043   -1.605584
  H      5.694526    3.094809   -2.111614
  H      4.640059    5.175809   -1.254830
  H      2.559280    5.038271    0.099833
  H      1.532532    2.831516    0.574445
  C      2.492740   -1.274577   -2.419700
  C      3.069210   -2.141848   -3.343202
  C      4.245283   -2.823200   -3.021963
  C      4.842886   -2.633499   -1.775820
  C      4.272633   -1.757382   -0.851682
  H      1.559916   -0.765736   -2.648777
  H      2.592837   -2.299617   -4.306681
  H      4.688326   -3.509606   -3.738122
  H      5.750981   -3.171899   -1.518950
  H      4.733770   -1.615306    0.121218
  C      2.573432   -1.401325    2.291237
  C      3.112349   -1.729837    3.532773
  C      4.110733   -0.934394    4.100320
  C      4.573407    0.190471    3.418246
  C      4.043987    0.520908    2.169837
  H      1.789551   -2.010529    1.847481
  H      2.746524   -2.605505    4.061892
  H      4.523765   -1.189174    5.072491
  H      5.347947    0.814312    3.855909
  H      4.408962    1.396682    1.642408
  C     -4.114004    1.861395    1.269146
  C     -4.661457    3.119187    1.526531
  C     -4.128475    4.254505    0.917253
  C     -3.037090    4.130954    0.054341
  C     -2.480194    2.878757   -0.192845
  H     -4.534614    0.980084    1.743054
  H     -5.505661    3.209295    2.204432
  H     -4.556024    5.232793    1.118339
  H     -2.613755    5.012384   -0.419158
  H     -1.618255    2.782567   -0.846864
  C     -4.156822    0.429958   -2.116482
  C     -4.751801    0.052668   -3.321119
  C     -4.309469   -1.085441   -3.994829
  C     -3.265632   -1.846455   -3.463206
  C     -2.661736   -1.471384   -2.265369
  H     -4.506373    1.315520   -1.594998
  H     -5.561640    0.650007   -3.730969
  H     -4.773990   -1.377169   -4.932751
  H     -2.915705   -2.732129   -3.986302
  H     -1.843939   -2.054854   -1.849211
  C     -2.377196   -1.225504    2.426817
  C     -2.923708   -2.054207    3.402951
  C     -4.138807   -2.701607    3.169380
  C     -4.805427   -2.517892    1.957599
  C     -4.264583   -1.681339    0.980942
  H     -1.416572   -0.742639    2.587014
  H     -2.394478   -2.207926    4.339105
  H     -4.559549   -3.357196    3.926721
  H     -5.744700   -3.030292    1.768738
  H     -4.779554   -1.544060    0.034665

 Total Charge           Charge          ....    0
 Multiplicity           Mult            ....    1
 Number of Electrons    NEL             ....  312
 Basis Dimension        Dim             .... 2079

ORBITAL ENERGIES
----------------

  NO   OCC          E(Eh)            E(eV)
   0   2.0000    -103.546406     -2817.6409
   1   2.0000     -78.938965     -2148.0384
   2   2.0000     -78.938923     -2148.0373
   3   2.0000     -10.870509      -295.8016
   4   2.0000     -10.870370      -295.7978
   5   2.0000     -10.868847      -295.7564
   6   2.0000     -10.868598      -295.7496
   7   2.0000     -10.867575      -295.7217
   8   2.0000     -10.867313      -295.7146
   9   2.0000     -10.867232      -295.7124
  10   2.0000     -10.866955      -295.7049
  11   2.0000     -10.866900      -295.7034
  12   2.0000     -10.866824      -295.7013
  13   2.0000     -10.865314      -295.6602
  14   2.0000     -10.865276      -295.6592
  15   2.0000     -10.865138      -295.6554
  16   2.0000     -10.865040      -295.6528
  17   2.0000     -10.864450      -295.6367
  18   2.0000     -10.864299      -295.6326
  19   2.0000     -10.864247      -295.6312
  20   2.0000     -10.864080      -295.6266
  21   2.0000     -10.863977      -295.6239
  22   2.0000     -10.863750      -295.6177
  23   2.0000     -10.862767      -295.5909
  24   2.0000     -10.862563      -295.5854
  25   2.0000     -10.862313      -295.5786
  26   2.0000     -10.862186      -295.5751
  27   2.0000     -10.861912      -295.5677
  28   2.0000     -10.861651      -295.5605
  29   2.0000     -10.860909      -295.5404
  30   2.0000     -10.860665      -295.5337
  31   2.0000     -10.859343      -295.4978
  32   2.0000     -10.859250      -295.4952
  33   2.0000     -10.859010      -295.4887
  34   2.0000     -10.858837      -295.4840
  35   2.0000     -10.858458      -295.4737
  36   2.0000     -10.858151      -295.4653
  37   2.0000     -10.857931      -295.4593
  38   2.0000     -10.857536      -295.4486
  39   2.0000     -10.063191      -273.8334
  40   2.0000      -7.635293      -207.7669
  41   2.0000      -7.634402      -207.7426
  42   2.0000      -7.633857      -207.7278
  43   2.0000      -7.175104      -195.2445
  44   2.0000      -7.175049      -195.2430
  45   2.0000      -5.167005      -140.6013
  46   2.0000      -5.166950      -140.5999
  47   2.0000      -5.166934      -140.5994
  48   2.0000      -5.166881      -140.5980
  49   2.0000      -5.165262      -140.5539
  50   2.0000      -5.165206      -140.5524
  51   2.0000      -3.591437       -97.7280
  52   2.0000      -2.255828       -61.3842
  53   2.0000      -2.252480       -61.2931
  54   2.0000      -2.242133       -61.0115
  55   2.0000      -1.059931       -28.8422
  56   2.0000      -1.059764       -28.8376
  57   2.0000      -1.050037       -28.5730
  58   2.0000      -1.049954       -28.5707
  59   2.0000      -1.047087       -28.4927
  60   2.0000      -1.047020       -28.4908
  61   2.0000      -0.957256       -26.0483
  62   2.0000      -0.956344       -26.0234
  63   2.0000      -0.929015       -25.2798
  64   2.0000      -0.928876       -25.2760
  65   2.0000      -0.925309       -25.1789
  66   2.0000      -0.924969       -25.1697
  67   2.0000      -0.923430       -25.1278
  68   2.0000      -0.923125       -25.1195
  69   2.0000      -0.920277       -25.0420
  70   2.0000      -0.920159       -25.0388
  71   2.0000      -0.918233       -24.9864
  72   2.0000      -0.918170       -24.9847
  73   2.0000      -0.888615       -24.1804
  74   2.0000      -0.811450       -22.0807
  75   2.0000      -0.808538       -22.0014
  76   2.0000      -0.758947       -20.6520
  77   2.0000      -0.758593       -20.6424
  78   2.0000      -0.755164       -20.5491
  79   2.0000      -0.754666       -20.5355
  80   2.0000      -0.753126       -20.4936
  81   2.0000      -0.752791       -20.4845
  82   2.0000      -0.742995       -20.2179
  83   2.0000      -0.742959       -20.2169
  84   2.0000      -0.740583       -20.1523
  85   2.0000      -0.740518       -20.1505
  86   2.0000      -0.697394       -18.9771
  87   2.0000      -0.694095       -18.8873
  88   2.0000      -0.645412       -17.5626
  89   2.0000      -0.645005       -17.5515
  90   2.0000      -0.641374       -17.4527
  91   2.0000      -0.641125       -17.4459
  92   2.0000      -0.622730       -16.9453
  93   2.0000      -0.620171       -16.8757
  94   2.0000      -0.579474       -15.7683
  95   2.0000      -0.579390       -15.7660
  96   2.0000      -0.578313       -15.7367
  97   2.0000      -0.577298       -15.7091
  98   2.0000      -0.574553       -15.6344
  99   2.0000      -0.572917       -15.5899
 100   2.0000      -0.566874       -15.4254
 101   2.0000      -0.566688       -15.4204
 102   2.0000      -0.565993       -15.4015
 103   2.0000      -0.565791       -15.3960
 104   2.0000      -0.559490       -15.2245
 105   2.0000      -0.557861       -15.1802
 106   2.0000      -0.539489       -14.6802
 107   2.0000      -0.537779       -14.6337
 108   2.0000      -0.533450       -14.5159
 109   2.0000      -0.533224       -14.5098
 110   2.0000      -0.532570       -14.4920
 111   2.0000      -0.531872       -14.4730
 112   2.0000      -0.522237       -14.2108
 113   2.0000      -0.521982       -14.2039
 114   2.0000      -0.517661       -14.0863
 115   2.0000      -0.516973       -14.0675
 116   2.0000      -0.490999       -13.3608
 117   2.0000      -0.477828       -13.0024
 118   2.0000      -0.469070       -12.7641
 119   2.0000      -0.465843       -12.6762
 120   2.0000      -0.463446       -12.6110
 121   2.0000      -0.462849       -12.5947
 122   2.0000      -0.462617       -12.5885
 123   2.0000      -0.459951       -12.5159
 124   2.0000      -0.454732       -12.3739
 125   2.0000      -0.451302       -12.2806
 126   2.0000      -0.449804       -12.2398
 127   2.0000      -0.446521       -12.1505
 128   2.0000      -0.445813       -12.1312
 129   2.0000      -0.445271       -12.1164
 130   2.0000      -0.444376       -12.0921
 131   2.0000      -0.432620       -11.7722
 132   2.0000      -0.427259       -11.6263
 133   2.0000      -0.426194       -11.5973
 134   2.0000      -0.424806       -11.5596
 135   2.0000      -0.421381       -11.4663
 136   2.0000      -0.404324       -11.0022
 137   2.0000      -0.386381       -10.5140
 138   2.0000      -0.370815       -10.0904
 139   2.0000      -0.370249       -10.0750
 140   2.0000      -0.355272        -9.6674
 141   2.0000      -0.335633        -9.1330
 142   2.0000      -0.326952        -8.8968
 143   2.0000      -0.324192        -8.8217
 144   2.0000      -0.323407        -8.8004
 145   2.0000      -0.321679        -8.7533
 146   2.0000      -0.320785        -8.7290
 147   2.0000      -0.319394        -8.6912
 148   2.0000      -0.317577        -8.6417
 149   2.0000      -0.312670        -8.5082
 150   2.0000      -0.311450        -8.4750
 151   2.0000      -0.309292        -8.4163
 152   2.0000      -0.309180        -8.4132
 153   2.0000      -0.302612        -8.2345
 154   2.0000      -0.301632        -8.2078
 155   2.0000      -0.282591        -7.6897
 156   0.0000       0.022698         0.6176
 157   0.0000       0.036124         0.9830
 158   0.0000       0.038013         1.0344
 159   0.0000       0.042948         1.1687
 160   0.0000       0.044122         1.2006

MULLIKEN ATOMIC CHARGES
-----------------------
   0 Rh:   -1.176167
   1 P :    2.028868
   2 P :    2.056983
   3 H :   -0.096297
   4 H :   -0.083984
   5 Cl:   -0.935463
   6 C :    0.186735
   7 C :    0.272353
   8 C :    0.315313
   9 C :    0.252501
  10 C :    0.284278
  11 C :    0.266272
  12 C :    0.353980
  13 C :   -0.331281
  14 C :    0.148335
  15 C :   -0.420521
  16 C :   -0.021483
  17 H :    0.000760
  18 H :   -0.086932
  19 H :   -0.050827
  20 H :   -0.074496
  21 H :   -0.042784
  22 C :    0.011552
  23 C :   -0.376458
  24 C :    0.141185
  25 C :   -0.307459
  26 C :    0.217084
  27 H :   -0.147455
  28 H :   -0.091299
  29 H :   -0.054329
  30 H :   -0.095737
  31 H :   -0.009055
  32 C :   -0.067056
  33 C :   -0.419412
  34 C :    0.128974
  35 C :   -0.307762
  36 C :    0.302894
  37 H :    0.137026
  38 H :   -0.073543
  39 H :   -0.052642
  40 H :   -0.087498
  41 H :   -0.017703
  42 C :    0.349890
  43 C :   -0.321493
  44 C :    0.143246
  45 C :   -0.424636
  46 C :    0.006163
  47 H :   -0.003368
  48 H :   -0.088780
  49 H :   -0.052173
  50 H :   -0.074395
  51 H :   -0.087310
  52 C :    0.303870
  53 C :   -0.312804
  54 C :    0.131911
  55 C :   -0.374635
  56 C :   -0.099135
  57 H :   -0.003921
  58 H :   -0.088379
  59 H :   -0.049743
  60 H :   -0.076037
  61 H :    0.155734
  62 C :    0.011371
  63 C :   -0.379688
  64 C :    0.137420
  65 C :   -0.321811
  66 C :    0.203638
  67 H :   -0.112052
  68 H :   -0.088673
  69 H :   -0.053518
  70 H :   -0.093296
  71 H :   -0.014843
Sum of atomic charges:    0.0000000

LOEWDIN ATOMIC CHARGES
----------------------
   0 Rh:    0.230157
   1 P :    0.974200
   2 P :    0.973606
   3 H :   -0.110032
   4 H :   -0.112461
   5 Cl:   -0.092260
   6 C :   -0.313897
   7 C :   -0.305743
   8 C :   -0.337564
   9 C :   -0.305178
  10 C :   -0.334692
  11 C :   -0.315550
  12 C :    0.010688
  13 C :    0.021055
  14 C :    0.016542
  15 C :    0.019674
  16 C :   -0.020422
  17 H :   -0.004557
  18 H :    0.000460
  19 H :   -0.000502
  20 H :    0.000121
  21 H :   -0.029730
  22 C :   -0.023609
  23 C :    0.023127
  24 C :    0.019212
  25 C :    0.021448
  26 C :    0.005817
  27 H :   -0.009022
  28 H :    0.000893
  29 H :   -0.000758
  30 H :   -0.000261
  31 H :    0.000693
  32 C :   -0.012864
  33 C :    0.022125
  34 C :    0.015461
  35 C :    0.017436
  36 C :    0.008630
  37 H :   -0.069903
  38 H :    0.001513
  39 H :   -0.001006
  40 H :   -0.000759
  41 H :   -0.006383
  42 C :    0.012194
  43 C :    0.021088
  44 C :    0.016233
  45 C :    0.019403
  46 C :   -0.022303
  47 H :   -0.005329
  48 H :    0.000384
  49 H :   -0.000648
  50 H :    0.000123
  51 H :   -0.025463
  52 C :    0.006491
  53 C :    0.017253
  54 C :    0.015548
  55 C :    0.022526
  56 C :   -0.010540
  57 H :   -0.006093
  58 H :   -0.000788
  59 H :   -0.001006
  60 H :    0.001505
  61 H :   -0.072079
  62 C :   -0.023212
  63 C :    0.023315
  64 C :    0.019251
  65 C :    0.021408
  66 C :    0.006306
  67 H :   -0.012122
  68 H :    0.000896
  69 H :   -0.000690
  70 H :   -0.000247
  71 H :    0.000889

  Mayer bond orders larger than 0.100000
B(  0-Rh,  1-P ) :   0.5072 B(  0-Rh,  2-P ) :   0.4485 B(  0-Rh,  3-H ) :   1.0880
B(  0-Rh,  4-H ) :   1.0792 B(  0-Rh,  5-Cl) :   0.7268 B(  0-Rh,  8-C ) :   0.1012
B(  0-Rh,  9-C ) :   0.1024 B(  0-Rh, 10-C ) :   0.1022 B(  0-Rh, 16-C ) :   0.1258
B(  0-Rh, 22-C ) :   0.1059 B(  0-Rh, 46-C ) :   0.1159 B(  0-Rh, 62-C ) :   0.1275
B(  0-Rh, 66-C ) :  -0.1072 B(  1-P ,  2-P ) :   0.3421 B(  1-P ,  3-H ) :  -0.1935
B(  1-P ,  5-Cl) :  -0.2998 B(  1-P ,  9-C ) :   0.5009 B(  1-P , 10-C ) :   0.5762
B(  1-P , 11-C ) :   0.4325 B(  1-P , 65-C ) :  -0.1117 B(  2-P ,  3-H ) :  -0.1039
B(  2-P ,  4-H ) :  -0.2157 B(  2-P ,  5-Cl) :  -0.3030 B(  2-P ,  6-C ) :   0.4804
B(  2-P ,  7-C ) :   0.4985 B(  2-P ,  8-C ) :   0.5495 B(  2-P , 25-C ) :  -0.1120
B(  2-P , 35-C ) :  -0.1070 B(  2-P , 36-C ) :   0.1309 B(  3-H ,  4-H ) :   0.1037
B(  5-Cl, 22-C ) :   0.1727 B(  5-Cl, 61-H ) :  -0.1130 B(  5-Cl, 62-C ) :   0.1627
B(  6-C ,  7-C ) :   0.4055 B(  6-C ,  8-C ) :   0.3097 B(  6-C , 12-C ) :   1.0859
B(  6-C , 16-C ) :   1.1779 B(  6-C , 21-H ) :  -0.1220 B(  6-C , 32-C ) :  -0.1649
B(  7-C ,  8-C ) :   0.3379 B(  7-C , 12-C ) :  -0.1039 B(  7-C , 32-C ) :   1.2150
B(  7-C , 33-C ) :  -0.1528 B(  7-C , 35-C ) :  -0.1349 B(  7-C , 36-C ) :   0.8573
B(  8-C , 16-C ) :  -0.1702 B(  8-C , 22-C ) :   1.2280 B(  8-C , 25-C ) :  -0.1021
B(  8-C , 26-C ) :   0.9799 B(  9-C , 10-C ) :   0.3779 B(  9-C , 11-C ) :   0.4229
B(  9-C , 42-C ) :  -0.1122 B(  9-C , 52-C ) :   0.8438 B(  9-C , 53-C ) :  -0.1475
B(  9-C , 55-C ) :  -0.1466 B(  9-C , 56-C ) :   1.1920 B( 10-C , 11-C ) :   0.2932
B( 10-C , 46-C ) :  -0.1684 B( 10-C , 62-C ) :   1.2822 B( 10-C , 66-C ) :   1.0004
B( 11-C , 42-C ) :   1.0182 B( 11-C , 46-C ) :   1.1714 B( 11-C , 51-H ) :  -0.1210
B( 11-C , 56-C ) :  -0.1641 B( 12-C , 13-C ) :   1.0361 B( 12-C , 16-C ) :  -0.1426
B( 12-C , 17-H ) :   1.0307 B( 12-C , 18-H ) :  -0.1045 B( 12-C , 32-C ) :   0.1265
B( 13-C , 14-C ) :   1.0553 B( 13-C , 15-C ) :   0.1358 B( 13-C , 17-H ) :  -0.1771
B( 13-C , 18-H ) :   1.1940 B( 13-C , 19-H ) :  -0.1360 B( 14-C , 15-C ) :   1.0450
B( 14-C , 18-H ) :  -0.1412 B( 14-C , 19-H ) :   1.1555 B( 14-C , 20-H ) :  -0.1395
B( 15-C , 16-C ) :   1.1248 B( 15-C , 19-H ) :  -0.1300 B( 15-C , 20-H ) :   1.1831
B( 15-C , 21-H ) :  -0.1442 B( 16-C , 20-H ) :  -0.1035 B( 16-C , 21-H ) :   1.0007
B( 16-C , 26-C ) :   0.1512 B( 22-C , 23-C ) :   1.1178 B( 22-C , 25-C ) :   0.1130
B( 22-C , 26-C ) :  -0.1166 B( 22-C , 27-H ) :   1.0188 B( 23-C , 24-C ) :   1.0821
B( 23-C , 27-H ) :  -0.1808 B( 23-C , 28-H ) :   1.1837 B( 23-C , 29-H ) :  -0.1261
B( 24-C , 25-C ) :   1.1277 B( 24-C , 28-H ) :  -0.1425 B( 24-C , 29-H ) :   1.1496
B( 24-C , 30-H ) :  -0.1392 B( 25-C , 26-C ) :   1.0485 B( 25-C , 29-H ) :  -0.1235
B( 25-C , 30-H ) :   1.1898 B( 25-C , 31-H ) :  -0.1709 B( 25-C , 36-C ) :   0.1129
B( 26-C , 31-H ) :   1.0643 B( 26-C , 36-C ) :  -0.2070 B( 32-C , 33-C ) :   1.2365
B( 32-C , 35-C ) :   0.1437 B( 32-C , 36-C ) :  -0.1604 B( 32-C , 37-H ) :   0.9487
B( 32-C , 38-H ) :  -0.1072 B( 33-C , 34-C ) :   1.0243 B( 33-C , 37-H ) :  -0.1852
B( 33-C , 38-H ) :   1.2021 B( 33-C , 39-H ) :  -0.1317 B( 34-C , 35-C ) :   1.0707
B( 34-C , 38-H ) :  -0.1451 B( 34-C , 39-H ) :   1.1578 B( 34-C , 40-H ) :  -0.1469
B( 35-C , 36-C ) :   1.1048 B( 35-C , 39-H ) :  -0.1302 B( 35-C , 40-H ) :   1.1913
B( 35-C , 41-H ) :  -0.1925 B( 36-C , 41-H ) :   1.0365 B( 42-C , 43-C ) :   1.0547
B( 42-C , 46-C ) :  -0.1285 B( 42-C , 47-H ) :   1.0387 B( 42-C , 48-H ) :  -0.1061
B( 42-C , 56-C ) :   0.1223 B( 43-C , 44-C ) :   1.0684 B( 43-C , 45-C ) :   0.1261
B( 43-C , 47-H ) :  -0.1792 B( 43-C , 48-H ) :   1.1978 B( 43-C , 49-H ) :  -0.1348
B( 44-C , 45-C ) :   1.0593 B( 44-C , 48-H ) :  -0.1410 B( 44-C , 49-H ) :   1.1554
B( 44-C , 50-H ) :  -0.1393 B( 45-C , 46-C ) :   1.1297 B( 45-C , 49-H ) :  -0.1288
B( 45-C , 50-H ) :   1.1842 B( 45-C , 51-H ) :  -0.1525 B( 46-C , 50-H ) :  -0.1001
B( 46-C , 51-H ) :   1.0152 B( 46-C , 66-C ) :   0.1679 B( 52-C , 53-C ) :   1.1051
B( 52-C , 56-C ) :  -0.1607 B( 52-C , 57-H ) :   1.0229 B( 52-C , 62-C ) :   0.1155
B( 52-C , 66-C ) :  -0.2010 B( 53-C , 54-C ) :   1.0743 B( 53-C , 56-C ) :   0.1459
B( 53-C , 57-H ) :  -0.1922 B( 53-C , 58-H ) :   1.1936 B( 53-C , 59-H ) :  -0.1298
B( 54-C , 55-C ) :   1.0269 B( 54-C , 58-H ) :  -0.1479 B( 54-C , 59-H ) :   1.1534
B( 54-C , 60-H ) :  -0.1476 B( 55-C , 56-C ) :   1.2544 B( 55-C , 59-H ) :  -0.1280
B( 55-C , 60-H ) :   1.1988 B( 55-C , 61-H ) :  -0.1917 B( 56-C , 60-H ) :  -0.1000
B( 56-C , 61-H ) :   0.9320 B( 62-C , 63-C ) :   1.1173 B( 62-C , 65-C ) :   0.1224
B( 62-C , 66-C ) :  -0.1283 B( 62-C , 67-H ) :   0.9899 B( 63-C , 64-C ) :   1.0756
B( 63-C , 65-C ) :   0.1090 B( 63-C , 67-H ) :  -0.1798 B( 63-C , 68-H ) :   1.1855
B( 63-C , 69-H ) :  -0.1294 B( 64-C , 65-C ) :   1.1184 B( 64-C , 68-H ) :  -0.1397
B( 64-C , 69-H ) :   1.1508 B( 64-C , 70-H ) :  -0.1430 B( 65-C , 66-C ) :   1.0315
B( 65-C , 69-H ) :  -0.1247 B( 65-C , 70-H ) :   1.1909 B( 65-C , 71-H ) :  -0.1713
B( 66-C , 71-H ) :   1.0601

MP2 TOTAL ENERGY:    -2642.674051801 Eh
Dispersion correction           -0.124095226
FINAL SINGLE POINT ENERGY     -2642.798147027223

DIPOLE MOMENT
-------------
                                X             Y             Z
Electronic contribution:      0.23758      -6.54555      -2.79126
Nuclear contribution   :     -0.23889       7.84350       2.82850
                        -----------------------------------------
Total Dipole Moment    :     -0.00131       1.29795       0.03724
                        -----------------------------------------
Magnitude (a.u.)       :      1.29848
Magnitude (Debye)      :      3.30049

Rotational constants in cm-1:     0.003375     0.001837     0.001796
Rotational constants in MHz :   101.191459    55.075356    53.852243

                             ****ORCA TERMINATED NORMALLY****
TOTAL RUN TIME: 0 days 0 hours 27 minutes 30 seconds 141 msec
