                         Program Version 4.2.0 -  RELEASE  -
|  1> #
|  2> # MOR26_pr05 ri-DSD-BLYP/2013-D3BJ/Def2-TZVPPD
|  3> #
|  4> ! rijk ri-dsd-blyp/2013 d3bj def2-tzvppd def2/jk def2-tzvppd/c grid4 nofinalgrid
|  5>
|  6> *xyz 0 1
|  7> Mn       0.144445   -0.000220    0.050119
|  8> O       -2.125838   -0.018069    2.024989
|  9> C       -1.261969   -0.011297    1.274333
| 10> C        1.407998   -0.004194    1.401883
| 11> O        2.195378   -0.006691    2.240943
| 12> C        1.458789    0.011243   -1.252981
| 13> O        2.260044    0.018413   -2.075843
| 14> C       -0.034165    1.837211   -0.109707
| 15> O       -0.163636    2.972926   -0.231026
| 16> C       -0.023402   -1.836685   -0.130415
| 17> O       -0.146189   -2.971707   -0.264701
| 18> C       -1.328355    0.004078   -1.485929
| 19> O       -2.518815    0.004844   -1.307728
| 20> H       -0.932058    0.005632   -2.529143
| 21> *
| 22>
| 23> %maxcore 5000
| 24>
| 25> %pal
| 26> nprocs = 24
| 27> end
| 28>
| 29>
| 30>                          ****END OF INPUT****

CARTESIAN COORDINATES (ANGSTROEM)
---------------------------------
  Mn     0.144445   -0.000220    0.050119
  O     -2.125838   -0.018069    2.024989
  C     -1.261969   -0.011297    1.274333
  C      1.407998   -0.004194    1.401883
  O      2.195378   -0.006691    2.240943
  C      1.458789    0.011243   -1.252981
  O      2.260044    0.018413   -2.075843
  C     -0.034165    1.837211   -0.109707
  O     -0.163636    2.972926   -0.231026
  C     -0.023402   -1.836685   -0.130415
  O     -0.146189   -2.971707   -0.264701
  C     -1.328355    0.004078   -1.485929
  O     -2.518815    0.004844   -1.307728
  H     -0.932058    0.005632   -2.529143

 Total Charge           Charge          ....    0
 Multiplicity           Mult            ....    1
 Number of Electrons    NEL             ....  110
 Basis Dimension        Dim             ....  546

ORBITAL ENERGIES
----------------

  NO   OCC          E(Eh)            E(eV)
   0   2.0000    -238.771079     -6497.2914
   1   2.0000     -28.530052      -776.3422
   2   2.0000     -24.368035      -663.0880
   3   2.0000     -24.367567      -663.0752
   4   2.0000     -24.364697      -662.9971
   5   2.0000     -20.177593      -549.0602
   6   2.0000     -20.171606      -548.8973
   7   2.0000     -20.170196      -548.8589
   8   2.0000     -20.167080      -548.7741
   9   2.0000     -20.167033      -548.7729
  10   2.0000     -20.039747      -545.3092
  11   2.0000     -11.029190      -300.1195
  12   2.0000     -11.027181      -300.0648
  13   2.0000     -11.023049      -299.9524
  14   2.0000     -11.023007      -299.9513
  15   2.0000     -11.022229      -299.9301
  16   2.0000     -10.930073      -297.4224
  17   2.0000      -3.607519       -98.1656
  18   2.0000      -2.349048       -63.9209
  19   2.0000      -2.348808       -63.9143
  20   2.0000      -2.339349       -63.6569
  21   2.0000      -1.410339       -38.3773
  22   2.0000      -1.404471       -38.2176
  23   2.0000      -1.403853       -38.2008
  24   2.0000      -1.400088       -38.0983
  25   2.0000      -1.400049       -38.0973
  26   2.0000      -1.263417       -34.3793
  27   2.0000      -0.800655       -21.7869
  28   2.0000      -0.753326       -20.4990
  29   2.0000      -0.749245       -20.3880
  30   2.0000      -0.747205       -20.3325
  31   2.0000      -0.743151       -20.2222
  32   2.0000      -0.724435       -19.7129
  33   2.0000      -0.669149       -18.2085
  34   2.0000      -0.626574       -17.0499
  35   2.0000      -0.624585       -16.9958
  36   2.0000      -0.621026       -16.8990
  37   2.0000      -0.617431       -16.8012
  38   2.0000      -0.616831       -16.7848
  39   2.0000      -0.614642       -16.7252
  40   2.0000      -0.599517       -16.3137
  41   2.0000      -0.597748       -16.2656
  42   2.0000      -0.595594       -16.2069
  43   2.0000      -0.590464       -16.0673
  44   2.0000      -0.585149       -15.9227
  45   2.0000      -0.579737       -15.7754
  46   2.0000      -0.574197       -15.6247
  47   2.0000      -0.565485       -15.3876
  48   2.0000      -0.552392       -15.0313
  49   2.0000      -0.504700       -13.7336
  50   2.0000      -0.472005       -12.8439
  51   2.0000      -0.387981       -10.5575
  52   2.0000      -0.386939       -10.5291
  53   2.0000      -0.377014       -10.2591
  54   2.0000      -0.295091        -8.0298
  55   0.0000       0.020547         0.5591
  56   0.0000       0.027221         0.7407
  57   0.0000       0.027229         0.7409
  58   0.0000       0.030569         0.8318
  59   0.0000       0.037431         1.0185

MULLIKEN ATOMIC CHARGES
-----------------------
   0 Mn:    1.827159
   1 O :   -0.283262
   2 C :    0.185279
   3 C :    0.163438
   4 O :   -0.332739
   5 C :    0.092204
   6 O :   -0.310998
   7 C :   -0.059205
   8 O :   -0.314154
   9 C :   -0.062308
  10 O :   -0.314391
  11 C :   -0.035575
  12 O :   -0.523462
  13 H :   -0.031985
Sum of atomic charges:    0.0000000

LOEWDIN ATOMIC CHARGES
----------------------
   0 Mn:   -0.486401
   1 O :    0.179215
   2 C :   -0.006360
   3 C :   -0.012023
   4 O :    0.145175
   5 C :   -0.025820
   6 O :    0.163473
   7 C :   -0.021122
   8 O :    0.156969
   9 C :   -0.021236
  10 O :    0.156900
  11 C :   -0.157578
  12 O :   -0.043130
  13 H :   -0.028063

  Mayer bond orders larger than 0.100000
B(  0-Mn,  2-C ) :   0.4003 B(  0-Mn,  3-C ) :   0.6236 B(  0-Mn,  5-C ) :   0.3169
B(  0-Mn,  7-C ) :   0.3638 B(  0-Mn,  9-C ) :   0.3600 B(  0-Mn, 11-C ) :   0.3493
B(  0-Mn, 13-H ) :  -0.1651 B(  1-O ,  2-C ) :   2.1913 B(  3-C ,  4-O ) :   2.1848
B(  5-C ,  6-O ) :   2.1842 B(  7-C ,  8-O ) :   2.1942 B(  7-C , 11-C ) :   0.1832
B(  9-C , 10-O ) :   2.1942 B(  9-C , 11-C ) :   0.1844 B( 11-C , 12-O ) :   1.7653
B( 11-C , 13-H ) :   1.2580

MP2 TOTAL ENERGY:    -1830.981892799 Eh
Dispersion correction           -0.020738360
FINAL SINGLE POINT ENERGY     -1831.002631158742

DIPOLE MOMENT
-------------
                                X             Y             Z
Electronic contribution:      2.87397      -0.00831       2.99367
Nuclear contribution   :     -1.52284       0.00619      -2.55446
                        -----------------------------------------
Total Dipole Moment    :      1.35113      -0.00212       0.43921
                        -----------------------------------------
Magnitude (a.u.)       :      1.42072
Magnitude (Debye)      :      3.61119

Rotational constants in cm-1:     0.023969     0.022043     0.021367
Rotational constants in MHz :   718.564967   660.846663   640.564054

                             ****ORCA TERMINATED NORMALLY****
TOTAL RUN TIME: 0 days 0 hours 0 minutes 41 seconds 628 msec
