                         Program Version 4.2.0 -  RELEASE  -
|  1> #
|  2> # MOR23_phseh ri-DSD-BLYP/2013-D3BJ/Def2-TZVPPD
|  3> #
|  4> ! rijk ri-dsd-blyp/2013 d3bj def2-tzvppd def2/jk def2-tzvppd/c grid4 nofinalgrid
|  5>
|  6> *xyz 0 1
|  7> C        0.099641    0.015172    0.000002
|  8> C        0.811159    1.219454    0.000004
|  9> C        2.205438    1.200000    0.000001
| 10> C        2.898295   -0.010923    0.000001
| 11> C        2.184022   -1.209573    0.000001
| 12> C        0.790170   -1.202154    0.000003
| 13> Se      -1.821201   -0.043502   -0.000002
| 14> H       -1.984560    1.419830   -0.000002
| 15> H        0.283594    2.168662    0.000009
| 16> H        2.749671    2.140448   -0.000003
| 17> H        3.983980   -0.020380    0.000003
| 18> H        2.711288   -2.159513   -0.000002
| 19> H        0.244496   -2.141840    0.000007
| 20> *
| 21>
| 22> %maxcore 5000
| 23>
| 24> %pal
| 25> nprocs = 24
| 26> end
| 27>
| 28>
| 29>                          ****END OF INPUT****

CARTESIAN COORDINATES (ANGSTROEM)
---------------------------------
  C      0.099641    0.015172    0.000002
  C      0.811159    1.219454    0.000004
  C      2.205438    1.200000    0.000001
  C      2.898295   -0.010923    0.000001
  C      2.184022   -1.209573    0.000001
  C      0.790170   -1.202154    0.000003
  Se    -1.821201   -0.043502   -0.000002
  H     -1.984560    1.419830   -0.000002
  H      0.283594    2.168662    0.000009
  H      2.749671    2.140448   -0.000003
  H      3.983980   -0.020380    0.000003
  H      2.711288   -2.159513   -0.000002
  H      0.244496   -2.141840    0.000007

 Total Charge           Charge          ....    0
 Multiplicity           Mult            ....    1
 Number of Electrons    NEL             ....   76
 Basis Dimension        Dim             ....  381

ORBITAL ENERGIES
----------------

  NO   OCC          E(Eh)            E(eV)
   0   2.0000    -458.354208    -12472.4521
   1   2.0000     -59.722833     -1625.1409
   2   2.0000     -53.486565     -1455.4434
   3   2.0000     -53.485694     -1455.4197
   4   2.0000     -53.484412     -1455.3848
   5   2.0000     -10.901138      -296.6350
   6   2.0000     -10.869385      -295.7710
   7   2.0000     -10.868911      -295.7581
   8   2.0000     -10.868218      -295.7392
   9   2.0000     -10.867906      -295.7308
  10   2.0000     -10.863264      -295.6045
  11   2.0000      -8.518940      -231.8122
  12   2.0000      -6.329828      -172.2434
  13   2.0000      -6.326250      -172.1460
  14   2.0000      -6.320662      -171.9939
  15   2.0000      -2.451102       -66.6979
  16   2.0000      -2.449881       -66.6647
  17   2.0000      -2.443621       -66.4943
  18   2.0000      -2.439997       -66.3957
  19   2.0000      -2.439282       -66.3762
  20   2.0000      -1.059026       -28.8176
  21   2.0000      -0.946361       -25.7518
  22   2.0000      -0.930982       -25.3333
  23   2.0000      -0.840644       -22.8751
  24   2.0000      -0.760539       -20.6953
  25   2.0000      -0.733574       -19.9616
  26   2.0000      -0.640090       -17.4177
  27   2.0000      -0.580999       -15.8098
  28   2.0000      -0.575290       -15.6544
  29   2.0000      -0.541188       -14.7265
  30   2.0000      -0.513682       -13.9780
  31   2.0000      -0.475140       -12.9292
  32   2.0000      -0.464610       -12.6427
  33   2.0000      -0.453098       -12.3294
  34   2.0000      -0.407983       -11.1018
  35   2.0000      -0.362824        -9.8729
  36   2.0000      -0.321840        -8.7577
  37   2.0000      -0.277946        -7.5633
  38   0.0000       0.034998         0.9523
  39   0.0000       0.040271         1.0958
  40   0.0000       0.049618         1.3502
  41   0.0000       0.051344         1.3972
  42   0.0000       0.056364         1.5337

MULLIKEN ATOMIC CHARGES
-----------------------
   0 C :    0.338364
   1 C :    0.222214
   2 C :   -0.031151
   3 C :   -0.069687
   4 C :    0.014470
   5 C :   -0.100878
   6 Se:   -0.093968
   7 H :   -0.007226
   8 H :   -0.101193
   9 H :   -0.030630
  10 H :   -0.025037
  11 H :   -0.031973
  12 H :   -0.083305
Sum of atomic charges:    0.0000000

LOEWDIN ATOMIC CHARGES
----------------------
   0 C :   -0.568296
   1 C :   -0.044380
   2 C :    0.010680
   3 C :    0.006666
   4 C :    0.010227
   5 C :   -0.056732
   6 Se:    0.917912
   7 H :   -0.254680
   8 H :   -0.012765
   9 H :    0.000912
  10 H :   -0.003355
  11 H :    0.001045
  12 H :   -0.007233

  Mayer bond orders larger than 0.100000
B(  0-C ,  1-C ) :   1.0155 B(  0-C ,  5-C ) :   1.1581 B(  0-C ,  6-Se) :   1.1204
B(  0-C ,  8-H ) :  -0.1953 B(  0-C , 12-H ) :  -0.2045 B(  1-C ,  2-C ) :   1.2004
B(  1-C ,  6-Se) :  -0.1390 B(  1-C ,  8-H ) :   1.1421 B(  2-C ,  3-C ) :   1.2566
B(  2-C ,  9-H ) :   1.1025 B(  2-C , 10-H ) :  -0.1007 B(  3-C ,  4-C ) :   1.2392
B(  3-C ,  9-H ) :  -0.1108 B(  3-C , 10-H ) :   1.0925 B(  3-C , 11-H ) :  -0.1112
B(  4-C ,  5-C ) :   1.2605 B(  4-C , 11-H ) :   1.1085 B(  5-C , 12-H ) :   1.1331
B(  6-Se,  7-H ) :   1.0178

MP2 TOTAL ENERGY:    -2632.914466176 Eh
Dispersion correction           -0.015524371
FINAL SINGLE POINT ENERGY     -2632.929990547034

DIPOLE MOMENT
-------------
                                X             Y             Z
Electronic contribution:    -25.00396      -1.49502      -0.00003
Nuclear contribution   :     25.40592       1.71219       0.00003
                        -----------------------------------------
Total Dipole Moment    :      0.40196       0.21717       0.00000
                        -----------------------------------------
Magnitude (a.u.)       :      0.45688
Magnitude (Debye)      :      1.16129

Rotational constants in cm-1:     0.185431     0.032154     0.027403
Rotational constants in MHz :  5559.086830   963.964760   821.511792

                             ****ORCA TERMINATED NORMALLY****
TOTAL RUN TIME: 0 days 0 hours 0 minutes 13 seconds 532 msec
