                         Program Version 4.2.0 -  RELEASE  -
|  1> #
|  2> # MOR27_pr07 ri-DSD-BLYP/2013-D3BJ/Def2-TZVPPD
|  3> #
|  4> ! rijk ri-dsd-blyp/2013 d3bj def2-tzvppd def2/jk def2-tzvppd/c grid4 nofinalgrid
|  5>
|  6> *xyz 0 1
|  7> W        0.000153   -0.023654    0.145460
|  8> C       -0.000249    1.935753    0.684175
|  9> O       -0.000602    3.038332    1.069126
| 10> C        0.000042    0.319115   -1.817511
| 11> O        0.000023    0.516387   -2.971186
| 12> C        0.000186   -2.057627    0.000209
| 13> O        0.000001   -3.223688    0.015338
| 14> H       -0.422672   -0.342863    1.975704
| 15> H        0.423087   -0.343070    1.976292
| 16> P        2.499044    0.051189    0.053466
| 17> C        3.398497   -0.579400    1.568536
| 18> H        4.468576   -0.564735    1.332934
| 19> C        3.357030   -0.829661   -1.379272
| 20> H        3.371948   -0.051400   -2.154068
| 21> C        3.157630    1.804169   -0.095931
| 22> H        2.704128    2.295578    0.773940
| 23> C       -3.158190    1.803853   -0.098051
| 24> P       -2.499342    0.051185    0.053494
| 25> H       -4.468329   -0.563916    1.334439
| 26> H       -2.705915    2.296277    0.771888
| 27> C       -3.357947   -0.831337   -1.377937
| 28> H       -3.374541   -0.053484   -2.153122
| 29> C        4.805704   -1.269244   -1.108536
| 30> H        5.254950   -1.620204   -2.045252
| 31> H        4.835898   -2.103732   -0.400453
| 32> H        5.434431   -0.467933   -0.716341
| 33> C        2.560788   -2.016752   -1.935473
| 34> H        3.061937   -2.400142   -2.832615
| 35> H        1.542966   -1.732188   -2.204810
| 36> H        2.502084   -2.833493   -1.209948
| 37> C        4.680481    1.979802   -0.012340
| 38> H        4.916239    3.046506    0.083978
| 39> H        5.169829    1.620688   -0.922848
| 40> H        5.123446    1.463622    0.844533
| 41> C        2.617881    2.501599   -1.352306
| 42> H        2.906367    3.558914   -1.336615
| 43> H        1.529775    2.443192   -1.410983
| 44> H        3.032951    2.058398   -2.264167
| 45> C        3.156179    0.325190    2.783070
| 46> H        3.624905   -0.113517    3.671755
| 47> H        2.084721    0.431553    2.987984
| 48> H        3.570907    1.327076    2.642068
| 49> C        2.983676   -2.024266    1.875196
| 50> H        3.139448   -2.690345    1.021876
| 51> H        1.922767   -2.073885    2.140278
| 52> H        3.565975   -2.409562    2.720613
| 53> C       -4.681242    1.978525   -0.016373
| 54> H       -5.169268    1.617830   -0.926977
| 55> H       -4.917927    3.045167    0.078302
| 56> H       -5.124772    1.463082    0.840662
| 57> C       -2.617453    2.500423   -1.354472
| 58> H       -3.030239    2.055355   -2.266464
| 59> C       -2.982294   -2.021525    1.878658
| 60> H       -1.529170    2.443643   -1.411239
| 61> H       -2.907637    3.557302   -1.340680
| 62> C       -3.156106    0.329464    2.782654
| 63> H       -1.921474   -2.069894    2.144316
| 64> H       -3.564665   -2.406148    2.724324
| 65> H       -3.137027   -2.688908    1.026165
| 66> C       -3.398186   -0.577432    1.569777
| 67> H       -3.622276   -0.109074    3.672772
| 68> H       -3.573608    1.330095    2.640827
| 69> H       -2.084555    0.438855    2.985621
| 70> C       -4.805869   -1.272290   -1.105425
| 71> H       -5.255612   -1.624537   -2.041419
| 72> H       -5.435110   -0.471325   -0.713333
| 73> H       -4.834472   -2.106207   -0.396602
| 74> C       -2.561058   -2.017888   -1.934324
| 75> H       -2.500954   -2.834229   -1.208460
| 76> H       -1.543733   -1.732464   -2.204653
| 77> H       -3.062606   -2.402180   -2.830854
| 78> *
| 79>
| 80> %maxcore 5000
| 81>
| 82> %pal
| 83> nprocs = 24
| 84> end
| 85>
| 86>
| 87>                          ****END OF INPUT****

CARTESIAN COORDINATES (ANGSTROEM)
---------------------------------
  W      0.000153   -0.023654    0.145460
  C     -0.000249    1.935753    0.684175
  O     -0.000602    3.038332    1.069126
  C      0.000042    0.319115   -1.817511
  O      0.000023    0.516387   -2.971186
  C      0.000186   -2.057627    0.000209
  O      0.000001   -3.223688    0.015338
  H     -0.422672   -0.342863    1.975704
  H      0.423087   -0.343070    1.976292
  P      2.499044    0.051189    0.053466
  C      3.398497   -0.579400    1.568536
  H      4.468576   -0.564735    1.332934
  C      3.357030   -0.829661   -1.379272
  H      3.371948   -0.051400   -2.154068
  C      3.157630    1.804169   -0.095931
  H      2.704128    2.295578    0.773940
  C     -3.158190    1.803853   -0.098051
  P     -2.499342    0.051185    0.053494
  H     -4.468329   -0.563916    1.334439
  H     -2.705915    2.296277    0.771888
  C     -3.357947   -0.831337   -1.377937
  H     -3.374541   -0.053484   -2.153122
  C      4.805704   -1.269244   -1.108536
  H      5.254950   -1.620204   -2.045252
  H      4.835898   -2.103732   -0.400453
  H      5.434431   -0.467933   -0.716341
  C      2.560788   -2.016752   -1.935473
  H      3.061937   -2.400142   -2.832615
  H      1.542966   -1.732188   -2.204810
  H      2.502084   -2.833493   -1.209948
  C      4.680481    1.979802   -0.012340
  H      4.916239    3.046506    0.083978
  H      5.169829    1.620688   -0.922848
  H      5.123446    1.463622    0.844533
  C      2.617881    2.501599   -1.352306
  H      2.906367    3.558914   -1.336615
  H      1.529775    2.443192   -1.410983
  H      3.032951    2.058398   -2.264167
  C      3.156179    0.325190    2.783070
  H      3.624905   -0.113517    3.671755
  H      2.084721    0.431553    2.987984
  H      3.570907    1.327076    2.642068
  C      2.983676   -2.024266    1.875196
  H      3.139448   -2.690345    1.021876
  H      1.922767   -2.073885    2.140278
  H      3.565975   -2.409562    2.720613
  C     -4.681242    1.978525   -0.016373
  H     -5.169268    1.617830   -0.926977
  H     -4.917927    3.045167    0.078302
  H     -5.124772    1.463082    0.840662
  C     -2.617453    2.500423   -1.354472
  H     -3.030239    2.055355   -2.266464
  C     -2.982294   -2.021525    1.878658
  H     -1.529170    2.443643   -1.411239
  H     -2.907637    3.557302   -1.340680
  C     -3.156106    0.329464    2.782654
  H     -1.921474   -2.069894    2.144316
  H     -3.564665   -2.406148    2.724324
  H     -3.137027   -2.688908    1.026165
  C     -3.398186   -0.577432    1.569777
  H     -3.622276   -0.109074    3.672772
  H     -3.573608    1.330095    2.640827
  H     -2.084555    0.438855    2.985621
  C     -4.805869   -1.272290   -1.105425
  H     -5.255612   -1.624537   -2.041419
  H     -5.435110   -0.471325   -0.713333
  H     -4.834472   -2.106207   -0.396602
  C     -2.561058   -2.017888   -1.934324
  H     -2.500954   -2.834229   -1.208460
  H     -1.543733   -1.732464   -2.204653
  H     -3.062606   -2.402180   -2.830854

 Total Charge           Charge          ....    0
 Multiplicity           Mult            ....    1
 Number of Electrons    NEL             ....  238
 Basis Dimension        Dim             .... 1800

ORBITAL ENERGIES
----------------

  NO   OCC          E(Eh)            E(eV)
   0   2.0000     -78.920907     -2147.5471
   1   2.0000     -78.920882     -2147.5464
   2   2.0000     -20.096641      -546.8574
   3   2.0000     -20.094781      -546.8068
   4   2.0000     -20.079522      -546.3916
   5   2.0000     -10.955218      -298.1066
   6   2.0000     -10.954150      -298.0776
   7   2.0000     -10.943779      -297.7954
   8   2.0000     -10.862644      -295.5876
   9   2.0000     -10.862626      -295.5871
  10   2.0000     -10.862284      -295.5778
  11   2.0000     -10.862255      -295.5770
  12   2.0000     -10.860685      -295.5343
  13   2.0000     -10.860673      -295.5339
  14   2.0000     -10.848340      -295.1983
  15   2.0000     -10.848337      -295.1983
  16   2.0000     -10.847099      -295.1646
  17   2.0000     -10.847084      -295.1642
  18   2.0000     -10.845927      -295.1327
  19   2.0000     -10.845911      -295.1323
  20   2.0000     -10.845721      -295.1271
  21   2.0000     -10.845702      -295.1265
  22   2.0000     -10.838374      -294.9272
  23   2.0000     -10.838374      -294.9271
  24   2.0000     -10.835337      -294.8445
  25   2.0000     -10.835329      -294.8443
  26   2.0000      -7.156029      -194.7254
  27   2.0000      -7.156005      -194.7248
  28   2.0000      -5.147803      -140.0788
  29   2.0000      -5.147784      -140.0783
  30   2.0000      -5.147780      -140.0782
  31   2.0000      -5.147760      -140.0777
  32   2.0000      -5.146139      -140.0336
  33   2.0000      -5.146116      -140.0329
  34   2.0000      -3.187123       -86.7260
  35   2.0000      -1.741944       -47.4007
  36   2.0000      -1.741569       -47.3905
  37   2.0000      -1.730081       -47.0779
  38   2.0000      -1.324978       -36.0545
  39   2.0000      -1.324158       -36.0322
  40   2.0000      -1.309275       -35.6272
  41   2.0000      -0.998512       -27.1709
  42   2.0000      -0.998001       -27.1570
  43   2.0000      -0.963432       -26.2163
  44   2.0000      -0.963389       -26.2151
  45   2.0000      -0.960196       -26.1283
  46   2.0000      -0.960158       -26.1272
  47   2.0000      -0.853373       -23.2215
  48   2.0000      -0.853176       -23.2161
  49   2.0000      -0.850505       -23.1434
  50   2.0000      -0.850087       -23.1320
  51   2.0000      -0.842573       -22.9276
  52   2.0000      -0.842279       -22.9196
  53   2.0000      -0.802557       -21.8387
  54   2.0000      -0.799763       -21.7627
  55   2.0000      -0.728478       -19.8229
  56   2.0000      -0.728060       -19.8115
  57   2.0000      -0.727363       -19.7925
  58   2.0000      -0.726410       -19.7666
  59   2.0000      -0.710407       -19.3312
  60   2.0000      -0.682356       -18.5678
  61   2.0000      -0.678999       -18.4765
  62   2.0000      -0.647472       -17.6186
  63   2.0000      -0.640740       -17.4354
  64   2.0000      -0.612996       -16.6805
  65   2.0000      -0.586869       -15.9695
  66   2.0000      -0.585418       -15.9300
  67   2.0000      -0.582972       -15.8635
  68   2.0000      -0.581369       -15.8199
  69   2.0000      -0.570667       -15.5286
  70   2.0000      -0.570153       -15.5147
  71   2.0000      -0.563696       -15.3390
  72   2.0000      -0.550631       -14.9834
  73   2.0000      -0.550156       -14.9705
  74   2.0000      -0.548627       -14.9289
  75   2.0000      -0.545174       -14.8349
  76   2.0000      -0.535427       -14.5697
  77   2.0000      -0.534869       -14.5545
  78   2.0000      -0.533103       -14.5065
  79   2.0000      -0.529069       -14.3967
  80   2.0000      -0.525423       -14.2975
  81   2.0000      -0.525127       -14.2894
  82   2.0000      -0.520200       -14.1554
  83   2.0000      -0.512945       -13.9579
  84   2.0000      -0.511980       -13.9317
  85   2.0000      -0.508747       -13.8437
  86   2.0000      -0.504723       -13.7342
  87   2.0000      -0.501218       -13.6388
  88   2.0000      -0.500132       -13.6093
  89   2.0000      -0.497787       -13.5455
  90   2.0000      -0.495452       -13.4819
  91   2.0000      -0.493728       -13.4350
  92   2.0000      -0.491986       -13.3876
  93   2.0000      -0.484241       -13.1769
  94   2.0000      -0.484148       -13.1743
  95   2.0000      -0.483715       -13.1625
  96   2.0000      -0.481746       -13.1090
  97   2.0000      -0.478755       -13.0276
  98   2.0000      -0.449612       -12.2346
  99   2.0000      -0.448952       -12.2166
 100   2.0000      -0.448672       -12.2090
 101   2.0000      -0.447079       -12.1656
 102   2.0000      -0.443837       -12.0774
 103   2.0000      -0.442674       -12.0458
 104   2.0000      -0.437988       -11.9182
 105   2.0000      -0.436674       -11.8825
 106   2.0000      -0.433000       -11.7825
 107   2.0000      -0.432837       -11.7781
 108   2.0000      -0.431371       -11.7382
 109   2.0000      -0.431075       -11.7302
 110   2.0000      -0.379582       -10.3289
 111   2.0000      -0.377150       -10.2628
 112   2.0000      -0.376848       -10.2546
 113   2.0000      -0.374649       -10.1947
 114   2.0000      -0.370312       -10.0767
 115   2.0000      -0.324118        -8.8197
 116   2.0000      -0.241509        -6.5718
 117   2.0000      -0.237913        -6.4739
 118   2.0000      -0.231203        -6.2914
 119   0.0000       0.036400         0.9905
 120   0.0000       0.041557         1.1308
 121   0.0000       0.044543         1.2121
 122   0.0000       0.047511         1.2928
 123   0.0000       0.049571         1.3489

MULLIKEN ATOMIC CHARGES
-----------------------
   0 W :   -1.674499
   1 C :    0.981705
   2 O :   -0.512686
   3 C :    0.599639
   4 O :   -0.566995
   5 C :    1.167616
   6 O :   -0.538421
   7 H :   -0.030923
   8 H :   -0.057704
   9 P :   -0.650297
  10 C :    1.009559
  11 H :    0.331457
  12 C :    1.390030
  13 H :    0.103984
  14 C :    0.945760
  15 H :    0.187109
  16 C :    0.946343
  17 P :   -0.650662
  18 H :    0.335429
  19 H :    0.188493
  20 C :    1.390429
  21 H :    0.102325
  22 C :   -0.729121
  23 H :    0.128365
  24 H :    0.054578
  25 H :    0.051334
  26 C :   -0.540373
  27 H :    0.107565
  28 H :   -0.065330
  29 H :    0.044554
  30 C :   -0.835457
  31 H :    0.096751
  32 H :    0.075863
  33 H :    0.108844
  34 C :   -0.557122
  35 H :    0.100664
  36 H :   -0.110565
  37 H :    0.077300
  38 C :   -0.670508
  39 H :    0.109630
  40 H :    0.015904
  41 H :    0.074977
  42 C :   -0.702216
  43 H :    0.045677
  44 H :   -0.017874
  45 H :    0.130045
  46 C :   -0.837077
  47 H :    0.076089
  48 H :    0.097302
  49 H :    0.108862
  50 C :   -0.552263
  51 H :    0.076652
  52 C :   -0.699438
  53 H :   -0.112964
  54 H :    0.100583
  55 C :   -0.673838
  56 H :   -0.018846
  57 H :    0.130130
  58 H :    0.045749
  59 C :    1.008488
  60 H :    0.109395
  61 H :    0.075135
  62 H :    0.018285
  63 C :   -0.726036
  64 H :    0.127747
  65 H :    0.051698
  66 H :    0.053884
  67 C :   -0.535158
  68 H :    0.044100
  69 H :   -0.067084
  70 H :    0.107432
Sum of atomic charges:   -0.0000000

LOEWDIN ATOMIC CHARGES
----------------------
   0 W :    0.209161
   1 C :   -0.252425
   2 O :    0.032881
   3 C :   -0.309317
   4 O :    0.016526
   5 C :   -0.253882
   6 O :    0.027871
   7 H :    0.016752
   8 H :    0.017093
   9 P :    1.077945
  10 C :   -0.369144
  11 H :   -0.028190
  12 C :   -0.323869
  13 H :   -0.017940
  14 C :   -0.356319
  15 H :   -0.029600
  16 C :   -0.356332
  17 P :    1.078171
  18 H :   -0.028208
  19 H :   -0.029526
  20 C :   -0.323881
  21 H :   -0.017943
  22 C :    0.117562
  23 H :   -0.004376
  24 H :   -0.016519
  25 H :   -0.038346
  26 C :    0.107407
  27 H :   -0.003770
  28 H :   -0.050597
  29 H :   -0.024125
  30 C :    0.118329
  31 H :   -0.004763
  32 H :   -0.018297
  33 H :   -0.027293
  34 C :    0.112331
  35 H :   -0.002335
  36 H :   -0.052835
  37 H :   -0.014987
  38 C :    0.114550
  39 H :   -0.005639
  40 H :   -0.032771
  41 H :   -0.023657
  42 C :    0.112713
  43 H :   -0.029268
  44 H :   -0.033749
  45 H :   -0.004911
  46 C :    0.118297
  47 H :   -0.018235
  48 H :   -0.004773
  49 H :   -0.027281
  50 C :    0.112345
  51 H :   -0.014984
  52 C :    0.112646
  53 H :   -0.052841
  54 H :   -0.002348
  55 C :    0.114528
  56 H :   -0.033783
  57 H :   -0.004923
  58 H :   -0.029233
  59 C :   -0.369157
  60 H :   -0.005655
  61 H :   -0.023623
  62 H :   -0.032700
  63 C :    0.117498
  64 H :   -0.004369
  65 H :   -0.038323
  66 H :   -0.016517
  67 C :    0.107390
  68 H :   -0.024118
  69 H :   -0.050540
  70 H :   -0.003781

  Mayer bond orders larger than 0.100000
B(  0-W ,  1-C ) :   1.4226 B(  0-W ,  3-C ) :   1.7357 B(  0-W ,  5-C ) :   1.5218
B(  0-W ,  7-H ) :   0.3781 B(  0-W ,  8-H ) :   0.4544 B(  0-W ,  9-P ) :  -0.5330
B(  0-W , 10-C ) :   0.1286 B(  0-W , 12-C ) :   0.1461 B(  0-W , 17-P ) :  -0.5164
B(  0-W , 20-C ) :   0.1495 B(  0-W , 59-C ) :   0.1257 B(  1-C ,  2-O ) :   1.8617
B(  1-C ,  3-C ) :  -0.2895 B(  1-C ,  5-C ) :   0.1736 B(  3-C ,  4-O ) :   1.7502
B(  3-C ,  5-C ) :  -0.1799 B(  3-C ,  9-P ) :   0.4339 B(  3-C , 17-P ) :   0.4346
B(  5-C ,  6-O ) :   1.8683 B(  7-H ,  8-H ) :   0.8959 B(  7-H , 12-C ) :   0.1281
B(  7-H , 20-C ) :  -0.1321 B(  8-H , 12-C ) :  -0.1279 B(  8-H , 20-C ) :   0.1329
B(  9-P , 10-C ) :   0.6141 B(  9-P , 11-H ) :  -0.1149 B(  9-P , 12-C ) :   0.4359
B(  9-P , 13-H ) :  -0.1069 B(  9-P , 14-C ) :   0.9524 B(  9-P , 17-P ) :  -0.3154
B(  9-P , 26-C ) :   0.1994 B(  9-P , 30-C ) :   0.1502 B(  9-P , 38-C ) :   0.1694
B(  9-P , 42-C ) :   0.1662 B( 10-C , 11-H ) :   0.8306 B( 10-C , 12-C ) :   0.1374
B( 10-C , 14-C ) :   0.2832 B( 10-C , 38-C ) :   0.6124 B( 10-C , 42-C ) :   0.6365
B( 11-H , 38-C ) :  -0.1062 B( 11-H , 42-C ) :  -0.1009 B( 12-C , 13-H ) :   0.9349
B( 12-C , 14-C ) :   0.2553 B( 12-C , 22-C ) :   0.5044 B( 12-C , 24-H ) :  -0.1306
B( 12-C , 26-C ) :   0.6318 B( 13-H , 26-C ) :  -0.1138 B( 14-C , 15-H ) :   0.8758
B( 14-C , 30-C ) :   0.5027 B( 14-C , 34-C ) :   0.6437 B( 16-C , 17-P ) :   0.9495
B( 16-C , 19-H ) :   0.8761 B( 16-C , 20-C ) :   0.2546 B( 16-C , 46-C ) :   0.5054
B( 16-C , 50-C ) :   0.6471 B( 16-C , 59-C ) :   0.2825 B( 17-P , 18-H ) :  -0.1162
B( 17-P , 20-C ) :   0.4237 B( 17-P , 21-H ) :  -0.1030 B( 17-P , 46-C ) :   0.1512
B( 17-P , 52-C ) :   0.1606 B( 17-P , 55-C ) :   0.1688 B( 17-P , 59-C ) :   0.6105
B( 17-P , 67-C ) :   0.1936 B( 18-H , 52-C ) :  -0.1015 B( 18-H , 55-C ) :  -0.1070
B( 18-H , 59-C ) :   0.8287 B( 20-C , 21-H ) :   0.9312 B( 20-C , 59-C ) :   0.1370
B( 20-C , 63-C ) :   0.5094 B( 20-C , 66-H ) :  -0.1303 B( 20-C , 67-C ) :   0.6343
B( 21-H , 67-C ) :  -0.1139 B( 22-C , 23-H ) :   1.0570 B( 22-C , 24-H ) :   1.1019
B( 22-C , 25-H ) :   1.0551 B( 22-C , 26-C ) :   0.1791 B( 26-C , 27-H ) :   1.0133
B( 26-C , 28-H ) :   1.1191 B( 26-C , 29-H ) :   0.9771 B( 30-C , 31-H ) :   1.0784
B( 30-C , 32-H ) :   1.0540 B( 30-C , 33-H ) :   0.9838 B( 30-C , 34-C ) :   0.1268
B( 34-C , 35-H ) :   0.9915 B( 34-C , 36-H ) :   1.0359 B( 34-C , 37-H ) :   1.0085
B( 38-C , 39-H ) :   1.0615 B( 38-C , 40-H ) :   1.0496 B( 38-C , 41-H ) :   0.9958
B( 42-C , 43-H ) :   0.9896 B( 42-C , 44-H ) :   1.0441 B( 42-C , 45-H ) :   1.0336
B( 46-C , 47-H ) :   1.0531 B( 46-C , 48-H ) :   1.0779 B( 46-C , 49-H ) :   0.9834
B( 46-C , 50-C ) :   0.1279 B( 50-C , 51-H ) :   1.0089 B( 50-C , 53-H ) :   1.0325
B( 50-C , 54-H ) :   0.9910 B( 52-C , 56-H ) :   1.0434 B( 52-C , 57-H ) :   1.0325
B( 52-C , 58-H ) :   0.9911 B( 52-C , 59-C ) :   0.6425 B( 55-C , 59-C ) :   0.6118
B( 55-C , 60-H ) :   1.0615 B( 55-C , 61-H ) :   0.9965 B( 55-C , 62-H ) :   1.0503
B( 63-C , 64-H ) :   1.0575 B( 63-C , 65-H ) :   1.0544 B( 63-C , 66-H ) :   1.1000
B( 63-C , 67-C ) :   0.1792 B( 67-C , 68-H ) :   0.9772 B( 67-C , 69-H ) :   1.1172
B( 67-C , 70-H ) :   1.0129 B( 68-H , 69-H ) :   0.1000

MP2 TOTAL ENERGY:    -1800.879651922 Eh
Dispersion correction           -0.106004949
FINAL SINGLE POINT ENERGY     -1800.985656870476

DIPOLE MOMENT
-------------
                                X             Y             Z
Electronic contribution:      0.02007      -1.51804      17.25724
Nuclear contribution   :     -0.02072       1.50197     -16.46211
                        -----------------------------------------
Total Dipole Moment    :     -0.00065      -0.01607       0.79514
                        -----------------------------------------
Magnitude (a.u.)       :      0.79530
Magnitude (Debye)      :      2.02149

Rotational constants in cm-1:     0.008070     0.003719     0.003518
Rotational constants in MHz :   241.945038   111.491092   105.477311

                             ****ORCA TERMINATED NORMALLY****
TOTAL RUN TIME: 0 days 0 hours 14 minutes 11 seconds 969 msec
