                         Program Version 4.2.0 -  RELEASE  -
|  1> #
|  2> # MOR25_pr01 ri-DSD-BLYP/2013-D3BJ/Def2-TZVPPD
|  3> #
|  4> ! rijk ri-dsd-blyp/2013 d3bj def2-tzvppd def2/jk def2-tzvppd/c grid4 nofinalgrid
|  5>
|  6> *xyz 0 1
|  7> Cr      -0.000002    0.000001   -0.000002
|  8> O       -2.697134   -0.646688    1.294578
|  9> C       -1.683963   -0.403751    0.808266
| 10> C        0.796729   -1.469777    0.925736
| 11> O        1.276107   -2.354083    1.482723
| 12> C        1.683955    0.403738   -0.808274
| 13> O        2.697131    0.646654   -1.294589
| 14> C        0.426065    1.152703    1.463476
| 15> O        0.682414    1.846242    2.344001
| 16> C       -0.426072   -1.152714   -1.463481
| 17> O       -0.682416   -1.846267   -2.343994
| 18> C       -0.796727    1.469805   -0.925736
| 19> O       -1.276085    2.354134   -1.482702
| 20> *
| 21>
| 22> %maxcore 5000
| 23>
| 24> %pal
| 25> nprocs = 24
| 26> end
| 27>
| 28>
| 29>                          ****END OF INPUT****

CARTESIAN COORDINATES (ANGSTROEM)
---------------------------------
  Cr    -0.000002    0.000001   -0.000002
  O     -2.697134   -0.646688    1.294578
  C     -1.683963   -0.403751    0.808266
  C      0.796729   -1.469777    0.925736
  O      1.276107   -2.354083    1.482723
  C      1.683955    0.403738   -0.808274
  O      2.697131    0.646654   -1.294589
  C      0.426065    1.152703    1.463476
  O      0.682414    1.846242    2.344001
  C     -0.426072   -1.152714   -1.463481
  O     -0.682416   -1.846267   -2.343994
  C     -0.796727    1.469805   -0.925736
  O     -1.276085    2.354134   -1.482702

 Total Charge           Charge          ....    0
 Multiplicity           Mult            ....    1
 Number of Electrons    NEL             ....  108
 Basis Dimension        Dim             ....  529

ORBITAL ENERGIES
----------------

  NO   OCC          E(Eh)            E(eV)
   0   2.0000    -218.881823     -5956.0772
   1   2.0000     -25.867396      -703.8876
   2   2.0000     -21.923755      -596.5757
   3   2.0000     -21.923755      -596.5757
   4   2.0000     -21.923755      -596.5757
   5   2.0000     -20.154414      -548.4295
   6   2.0000     -20.154413      -548.4295
   7   2.0000     -20.154412      -548.4294
   8   2.0000     -20.154411      -548.4294
   9   2.0000     -20.154411      -548.4294
  10   2.0000     -20.154409      -548.4293
  11   2.0000     -11.009155      -299.5743
  12   2.0000     -11.009147      -299.5741
  13   2.0000     -11.009147      -299.5741
  14   2.0000     -11.009146      -299.5741
  15   2.0000     -11.009143      -299.5740
  16   2.0000     -11.009143      -299.5740
  17   2.0000      -3.289418       -89.5096
  18   2.0000      -2.115643       -57.5696
  19   2.0000      -2.115643       -57.5696
  20   2.0000      -2.115642       -57.5696
  21   2.0000      -1.389615       -37.8134
  22   2.0000      -1.388420       -37.7808
  23   2.0000      -1.388420       -37.7808
  24   2.0000      -1.388419       -37.7808
  25   2.0000      -1.387977       -37.7688
  26   2.0000      -1.387976       -37.7688
  27   2.0000      -0.783550       -21.3215
  28   2.0000      -0.735347       -20.0098
  29   2.0000      -0.735347       -20.0098
  30   2.0000      -0.735346       -20.0098
  31   2.0000      -0.730680       -19.8828
  32   2.0000      -0.730680       -19.8828
  33   2.0000      -0.657192       -17.8831
  34   2.0000      -0.607466       -16.5300
  35   2.0000      -0.607466       -16.5300
  36   2.0000      -0.607465       -16.5300
  37   2.0000      -0.607171       -16.5220
  38   2.0000      -0.607171       -16.5220
  39   2.0000      -0.607171       -16.5220
  40   2.0000      -0.585991       -15.9456
  41   2.0000      -0.585991       -15.9456
  42   2.0000      -0.585991       -15.9456
  43   2.0000      -0.578716       -15.7477
  44   2.0000      -0.578715       -15.7476
  45   2.0000      -0.578715       -15.7476
  46   2.0000      -0.567404       -15.4398
  47   2.0000      -0.567402       -15.4398
  48   2.0000      -0.541521       -14.7355
  49   2.0000      -0.541520       -14.7355
  50   2.0000      -0.541519       -14.7355
  51   2.0000      -0.326781        -8.8922
  52   2.0000      -0.326780        -8.8921
  53   2.0000      -0.326778        -8.8921
  54   0.0000       0.024378         0.6634
  55   0.0000       0.025420         0.6917
  56   0.0000       0.025423         0.6918
  57   0.0000       0.025428         0.6919
  58   0.0000       0.039618         1.0781

MULLIKEN ATOMIC CHARGES
-----------------------
   0 Cr:   -0.949032
   1 O :   -0.328035
   2 C :    0.486084
   3 C :    0.485968
   4 O :   -0.328137
   5 C :    0.486516
   6 O :   -0.328120
   7 C :    0.486315
   8 O :   -0.328052
   9 C :    0.486487
  10 O :   -0.328075
  11 C :    0.486262
  12 O :   -0.328182
Sum of atomic charges:   -0.0000000

LOEWDIN ATOMIC CHARGES
----------------------
   0 Cr:   -0.550048
   1 O :    0.134097
   2 C :   -0.042426
   3 C :   -0.042427
   4 O :    0.134098
   5 C :   -0.042428
   6 O :    0.134096
   7 C :   -0.042426
   8 O :    0.134099
   9 C :   -0.042420
  10 O :    0.134101
  11 C :   -0.042415
  12 O :    0.134098

  Mayer bond orders larger than 0.100000
B(  0-Cr,  1-O ) :   0.1085 B(  0-Cr,  2-C ) :   0.8923 B(  0-Cr,  3-C ) :   0.8937
B(  0-Cr,  4-O ) :   0.1086 B(  0-Cr,  5-C ) :   0.8931 B(  0-Cr,  6-O ) :   0.1086
B(  0-Cr,  7-C ) :   0.8932 B(  0-Cr,  8-O ) :   0.1087 B(  0-Cr,  9-C ) :   0.8935
B(  0-Cr, 10-O ) :   0.1087 B(  0-Cr, 11-C ) :   0.8936 B(  0-Cr, 12-O ) :   0.1088
B(  1-O ,  2-C ) :   2.1261 B(  3-C ,  4-O ) :   2.1261 B(  5-C ,  6-O ) :   2.1262
B(  7-C ,  8-O ) :   2.1261 B(  9-C , 10-O ) :   2.1261 B( 11-C , 12-O ) :   2.1260

MP2 TOTAL ENERGY:    -1723.921420752 Eh
Dispersion correction           -0.024132981
FINAL SINGLE POINT ENERGY     -1723.945553732709

DIPOLE MOMENT
-------------
                                X             Y             Z
Electronic contribution:     -0.00005       0.00001      -0.00005
Nuclear contribution   :      0.00001      -0.00000       0.00001
                        -----------------------------------------
Total Dipole Moment    :     -0.00004       0.00001      -0.00004
                        -----------------------------------------
Magnitude (a.u.)       :      0.00006
Magnitude (Debye)      :      0.00014

Rotational constants in cm-1:     0.021751     0.021751     0.021751
Rotational constants in MHz :   652.090818   652.088663   652.088001

                             ****ORCA TERMINATED NORMALLY****
TOTAL RUN TIME: 0 days 0 hours 0 minutes 31 seconds 628 msec
