                         Program Version 4.2.0 -  RELEASE  -
|  1> #
|  2> # MOR22_pcy3 ri-DSD-BLYP/2013-D3BJ/Def2-TZVPPD
|  3> #
|  4> ! rijk ri-dsd-blyp/2013 d3bj def2-tzvppd def2/jk def2-tzvppd/c grid4 nofinalgrid
|  5>
|  6> *xyz 0 1
|  7> P       -0.216171   -0.083077   -1.104749
|  8> C        0.505342    1.551445   -0.512411
|  9> C        0.372168    1.952615    0.967298
| 10> C        0.853698    3.397029    1.180070
| 11> C        2.300662    3.578910    0.704200
| 12> C        2.457928    3.151362   -0.760734
| 13> C        1.965268    1.712769   -0.974950
| 14> C        0.795470   -1.465851   -0.339173
| 15> C        1.194026   -1.376002    1.141683
| 16> C        1.830829   -2.691519    1.617818
| 17> C        3.044522   -3.062049    0.755351
| 18> C        2.669205   -3.127202   -0.731177
| 19> C        2.022807   -1.816580   -1.203888
| 20> C       -1.786787   -0.169467   -0.086099
| 21> C       -2.713096    0.996882   -0.481425
| 22> C       -4.042154    0.954203    0.285800
| 23> C       -4.758728   -0.385405    0.080261
| 24> C       -3.846658   -1.555269    0.467941
| 25> C       -2.516136   -1.508613   -0.298163
| 26> H       -0.086881    2.275758   -1.095374
| 27> H        0.969845    1.279400    1.591405
| 28> H       -0.665694    1.858440    1.303963
| 29> H        0.763179    3.670246    2.238833
| 30> H        0.199154    4.078898    0.617939
| 31> H        2.616561    4.621342    0.833145
| 32> H        2.964320    2.965719    1.331124
| 33> H        1.874427    3.827995   -1.401227
| 34> H        3.505668    3.240568   -1.073514
| 35> H        2.061196    1.427054   -2.029468
| 36> H        2.603163    1.029346   -0.398698
| 37> H        0.103060   -2.317100   -0.439871
| 38> H        1.082328   -3.494681    1.556078
| 39> H        0.325749   -1.129652    1.763601
| 40> H        1.922184   -0.564787    1.270256
| 41> H        2.123181   -2.608981    2.672179
| 42> H        3.467034   -4.019422    1.084011
| 43> H        3.828662   -2.303820    0.895790
| 44> H        3.555664   -3.350052   -1.337889
| 45> H        1.959466   -3.952268   -0.888607
| 46> H        1.724465   -1.892063   -2.255831
| 47> H        2.762591   -1.008464   -1.141586
| 48> H       -1.543753   -0.076214    0.982532
| 49> H       -2.216101    1.957671   -0.306445
| 50> H       -2.910289    0.936504   -1.561343
| 51> H       -3.843829    1.098520    1.357699
| 52> H       -4.683867    1.784681   -0.033466
| 53> H       -5.041866   -0.483893   -0.977569
| 54> H       -5.687452   -0.415984    0.663015
| 55> H       -4.350272   -2.511559    0.279900
| 56> H       -3.640750   -1.510603    1.547174
| 57> H       -1.884435   -2.344750    0.021762
| 58> H       -2.704341   -1.645246   -1.372687
| 59> *
| 60>
| 61> %maxcore 5000
| 62>
| 63> %pal
| 64> nprocs = 24
| 65> end
| 66>
| 67>
| 68>                          ****END OF INPUT****

CARTESIAN COORDINATES (ANGSTROEM)
---------------------------------
  P     -0.216171   -0.083077   -1.104749
  C      0.505342    1.551445   -0.512411
  C      0.372168    1.952615    0.967298
  C      0.853698    3.397029    1.180070
  C      2.300662    3.578910    0.704200
  C      2.457928    3.151362   -0.760734
  C      1.965268    1.712769   -0.974950
  C      0.795470   -1.465851   -0.339173
  C      1.194026   -1.376002    1.141683
  C      1.830829   -2.691519    1.617818
  C      3.044522   -3.062049    0.755351
  C      2.669205   -3.127202   -0.731177
  C      2.022807   -1.816580   -1.203888
  C     -1.786787   -0.169467   -0.086099
  C     -2.713096    0.996882   -0.481425
  C     -4.042154    0.954203    0.285800
  C     -4.758728   -0.385405    0.080261
  C     -3.846658   -1.555269    0.467941
  C     -2.516136   -1.508613   -0.298163
  H     -0.086881    2.275758   -1.095374
  H      0.969845    1.279400    1.591405
  H     -0.665694    1.858440    1.303963
  H      0.763179    3.670246    2.238833
  H      0.199154    4.078898    0.617939
  H      2.616561    4.621342    0.833145
  H      2.964320    2.965719    1.331124
  H      1.874427    3.827995   -1.401227
  H      3.505668    3.240568   -1.073514
  H      2.061196    1.427054   -2.029468
  H      2.603163    1.029346   -0.398698
  H      0.103060   -2.317100   -0.439871
  H      1.082328   -3.494681    1.556078
  H      0.325749   -1.129652    1.763601
  H      1.922184   -0.564787    1.270256
  H      2.123181   -2.608981    2.672179
  H      3.467034   -4.019422    1.084011
  H      3.828662   -2.303820    0.895790
  H      3.555664   -3.350052   -1.337889
  H      1.959466   -3.952268   -0.888607
  H      1.724465   -1.892063   -2.255831
  H      2.762591   -1.008464   -1.141586
  H     -1.543753   -0.076214    0.982532
  H     -2.216101    1.957671   -0.306445
  H     -2.910289    0.936504   -1.561343
  H     -3.843829    1.098520    1.357699
  H     -4.683867    1.784681   -0.033466
  H     -5.041866   -0.483893   -0.977569
  H     -5.687452   -0.415984    0.663015
  H     -4.350272   -2.511559    0.279900
  H     -3.640750   -1.510603    1.547174
  H     -1.884435   -2.344750    0.021762
  H     -2.704341   -1.645246   -1.372687

 Total Charge           Charge          ....    0
 Multiplicity           Mult            ....    1
 Number of Electrons    NEL             ....  156
 Basis Dimension        Dim             .... 1275

ORBITAL ENERGIES
----------------

  NO   OCC          E(Eh)            E(eV)
   0   2.0000     -78.880385     -2146.4444
   1   2.0000     -10.848000      -295.1891
   2   2.0000     -10.846852      -295.1578
   3   2.0000     -10.846446      -295.1468
   4   2.0000     -10.842746      -295.0461
   5   2.0000     -10.842385      -295.0363
   6   2.0000     -10.841702      -295.0177
   7   2.0000     -10.841494      -295.0121
   8   2.0000     -10.841065      -295.0004
   9   2.0000     -10.840903      -294.9960
  10   2.0000     -10.840433      -294.9832
  11   2.0000     -10.840324      -294.9802
  12   2.0000     -10.840217      -294.9773
  13   2.0000     -10.840211      -294.9771
  14   2.0000     -10.839985      -294.9710
  15   2.0000     -10.839950      -294.9700
  16   2.0000     -10.839082      -294.9464
  17   2.0000     -10.839048      -294.9455
  18   2.0000     -10.838523      -294.9312
  19   2.0000      -7.118237      -193.6971
  20   2.0000      -5.109402      -139.0339
  21   2.0000      -5.109267      -139.0302
  22   2.0000      -5.107062      -138.9702
  23   2.0000      -1.021158       -27.7871
  24   2.0000      -1.010456       -27.4959
  25   2.0000      -1.010084       -27.4858
  26   2.0000      -0.930723       -25.3263
  27   2.0000      -0.911072       -24.7915
  28   2.0000      -0.909322       -24.7439
  29   2.0000      -0.906796       -24.6752
  30   2.0000      -0.901624       -24.5344
  31   2.0000      -0.900562       -24.5055
  32   2.0000      -0.786347       -21.3976
  33   2.0000      -0.757953       -20.6249
  34   2.0000      -0.754690       -20.5362
  35   2.0000      -0.747014       -20.3273
  36   2.0000      -0.739412       -20.1204
  37   2.0000      -0.738789       -20.1035
  38   2.0000      -0.695523       -18.9261
  39   2.0000      -0.683988       -18.6123
  40   2.0000      -0.678915       -18.4742
  41   2.0000      -0.645281       -17.5590
  42   2.0000      -0.587578       -15.9888
  43   2.0000      -0.583455       -15.8766
  44   2.0000      -0.575774       -15.6676
  45   2.0000      -0.551448       -15.0057
  46   2.0000      -0.545730       -14.8501
  47   2.0000      -0.545463       -14.8428
  48   2.0000      -0.544606       -14.8195
  49   2.0000      -0.541888       -14.7455
  50   2.0000      -0.538873       -14.6635
  51   2.0000      -0.534856       -14.5542
  52   2.0000      -0.518841       -14.1184
  53   2.0000      -0.511985       -13.9318
  54   2.0000      -0.480573       -13.0771
  55   2.0000      -0.475951       -12.9513
  56   2.0000      -0.474470       -12.9110
  57   2.0000      -0.472970       -12.8702
  58   2.0000      -0.472540       -12.8585
  59   2.0000      -0.464821       -12.6484
  60   2.0000      -0.451826       -12.2948
  61   2.0000      -0.445620       -12.1259
  62   2.0000      -0.442908       -12.0521
  63   2.0000      -0.435875       -11.8608
  64   2.0000      -0.434488       -11.8230
  65   2.0000      -0.432645       -11.7729
  66   2.0000      -0.426327       -11.6009
  67   2.0000      -0.425184       -11.5698
  68   2.0000      -0.416371       -11.3300
  69   2.0000      -0.410337       -11.1658
  70   2.0000      -0.400406       -10.8956
  71   2.0000      -0.396643       -10.7932
  72   2.0000      -0.387604       -10.5472
  73   2.0000      -0.385703       -10.4955
  74   2.0000      -0.383048       -10.4233
  75   2.0000      -0.344575        -9.3764
  76   2.0000      -0.344166        -9.3652
  77   2.0000      -0.277218        -7.5435
  78   0.0000       0.042513         1.1568
  79   0.0000       0.048903         1.3307
  80   0.0000       0.050503         1.3743
  81   0.0000       0.054133         1.4730
  82   0.0000       0.062969         1.7135

MULLIKEN ATOMIC CHARGES
-----------------------
   0 P :   -1.037497
   1 C :    0.572948
   2 C :    0.169322
   3 C :   -0.478257
   4 C :   -0.072720
   5 C :   -0.349973
   6 C :   -0.334343
   7 C :    0.814343
   8 C :   -0.021670
   9 C :   -0.331254
  10 C :   -0.146408
  11 C :   -0.324201
  12 C :   -0.355017
  13 C :    0.568388
  14 C :   -0.233774
  15 C :   -0.155479
  16 C :   -0.308440
  17 C :   -0.066611
  18 C :   -0.287213
  19 H :    0.364882
  20 H :    0.067258
  21 H :   -0.201046
  22 H :    0.024954
  23 H :    0.116611
  24 H :    0.048464
  25 H :    0.085248
  26 H :    0.110889
  27 H :    0.016136
  28 H :    0.103078
  29 H :    0.071283
  30 H :    0.233795
  31 H :    0.091525
  32 H :   -0.068631
  33 H :    0.099458
  34 H :    0.018647
  35 H :    0.051766
  36 H :    0.085014
  37 H :    0.013145
  38 H :    0.113413
  39 H :    0.057189
  40 H :    0.076968
  41 H :    0.251214
  42 H :   -0.122213
  43 H :    0.267015
  44 H :    0.072102
  45 H :    0.040657
  46 H :    0.112822
  47 H :    0.034528
  48 H :    0.041345
  49 H :    0.071901
  50 H :   -0.193404
  51 H :    0.221839
Sum of atomic charges:   -0.0000000

LOEWDIN ATOMIC CHARGES
----------------------
   0 P :    1.147576
   1 C :   -0.327146
   2 C :   -0.028899
   3 C :   -0.010514
   4 C :   -0.018764
   5 C :   -0.014623
   6 C :   -0.052173
   7 C :   -0.327826
   8 C :   -0.031445
   9 C :   -0.011827
  10 C :   -0.019402
  11 C :   -0.016602
  12 C :   -0.051201
  13 C :   -0.347060
  14 C :   -0.052226
  15 C :   -0.014338
  16 C :   -0.021899
  17 C :   -0.015742
  18 C :   -0.046866
  19 H :   -0.012902
  20 H :    0.000680
  21 H :   -0.005090
  22 H :    0.011734
  23 H :    0.019222
  24 H :    0.009840
  25 H :    0.018410
  26 H :    0.018498
  27 H :    0.011141
  28 H :    0.010527
  29 H :    0.000025
  30 H :   -0.023315
  31 H :    0.018589
  32 H :    0.006804
  33 H :    0.001997
  34 H :    0.011375
  35 H :    0.009634
  36 H :    0.018267
  37 H :    0.010593
  38 H :    0.017909
  39 H :    0.004645
  40 H :   -0.000747
  41 H :   -0.012121
  42 H :   -0.006627
  43 H :    0.019089
  44 H :    0.019021
  45 H :    0.011259
  46 H :    0.018427
  47 H :    0.009827
  48 H :    0.010799
  49 H :    0.018909
  50 H :   -0.004842
  51 H :    0.019401

  Mayer bond orders larger than 0.100000
B(  0-P ,  1-C ) :   0.7033 B(  0-P ,  6-C ) :   0.2742 B(  0-P ,  7-C ) :   0.5608
B(  0-P ,  8-C ) :   0.1856 B(  0-P , 13-C ) :   0.5754 B(  0-P , 14-C ) :   0.2323
B(  0-P , 19-H ) :  -0.1357 B(  0-P , 39-H ) :  -0.1199 B(  1-C ,  2-C ) :   1.0701
B(  1-C ,  3-C ) :   0.3117 B(  1-C ,  5-C ) :   0.3490 B(  1-C ,  6-C ) :   1.1656
B(  1-C ,  7-C ) :   0.1732 B(  1-C , 19-H ) :   0.9068 B(  2-C ,  3-C ) :   1.0302
B(  2-C ,  6-C ) :   0.1762 B(  2-C , 19-H ) :  -0.1535 B(  2-C , 20-H ) :   0.9735
B(  2-C , 21-H ) :   1.0014 B(  3-C ,  4-C ) :   1.0122 B(  3-C ,  5-C ) :   0.2257
B(  3-C , 20-H ) :  -0.1430 B(  3-C , 22-H ) :   0.9641 B(  3-C , 23-H ) :   0.9887
B(  4-C ,  5-C ) :   1.0308 B(  4-C , 24-H ) :   1.0122 B(  4-C , 25-H ) :   1.0038
B(  5-C ,  6-C ) :   0.9620 B(  5-C , 26-H ) :   0.9988 B(  5-C , 27-H ) :   0.9751
B(  6-C , 19-H ) :  -0.1619 B(  6-C , 28-H ) :   0.9275 B(  6-C , 29-H ) :   1.0556
B(  7-C ,  8-C ) :   1.2039 B(  7-C ,  9-C ) :   0.2868 B(  7-C , 11-C ) :   0.2532
B(  7-C , 12-C ) :   1.0864 B(  7-C , 13-C ) :   0.1537 B(  7-C , 30-H ) :   0.9364
B(  8-C ,  9-C ) :   0.9756 B(  8-C , 30-H ) :  -0.1001 B(  8-C , 32-H ) :   0.9883
B(  8-C , 33-H ) :   1.0099 B(  9-C , 10-C ) :   1.0245 B(  9-C , 11-C ) :   0.1922
B(  9-C , 31-H ) :   0.9856 B(  9-C , 33-H ) :  -0.1202 B(  9-C , 34-H ) :   0.9693
B( 10-C , 11-C ) :   1.0348 B( 10-C , 35-H ) :   1.0154 B( 10-C , 36-H ) :   1.0088
B( 11-C , 12-C ) :   0.9424 B( 11-C , 37-H ) :   1.0034 B( 11-C , 38-H ) :   0.9937
B( 12-C , 39-H ) :   1.0268 B( 12-C , 40-H ) :   1.0146 B( 13-C , 14-C ) :   1.1416
B( 13-C , 15-C ) :   0.2885 B( 13-C , 17-C ) :   0.1875 B( 13-C , 18-C ) :   1.1517
B( 13-C , 41-H ) :   0.9520 B( 14-C , 15-C ) :   0.8318 B( 14-C , 16-C ) :   0.1867
B( 14-C , 41-H ) :  -0.1652 B( 14-C , 42-H ) :   1.0245 B( 14-C , 43-H ) :   0.9130
B( 15-C , 16-C ) :   1.0484 B( 15-C , 42-H ) :   0.1128 B( 15-C , 43-H ) :  -0.1036
B( 15-C , 44-H ) :   0.9961 B( 15-C , 45-H ) :   1.0188 B( 16-C , 17-C ) :   1.0227
B( 16-C , 18-C ) :   0.2108 B( 16-C , 46-H ) :   0.9951 B( 16-C , 47-H ) :   1.0192
B( 17-C , 18-C ) :   0.8379 B( 17-C , 48-H ) :   1.0145 B( 17-C , 49-H ) :   0.9823
B( 18-C , 41-H ) :  -0.1882 B( 18-C , 50-H ) :   1.0412 B( 18-C , 51-H ) :   0.9080

MP2 TOTAL ENERGY:    -1046.267445184 Eh
Dispersion correction           -0.058958983
FINAL SINGLE POINT ENERGY     -1046.326404167195

DIPOLE MOMENT
-------------
                                X             Y             Z
Electronic contribution:     -1.36653      -0.48140      -6.51629
Nuclear contribution   :      1.41899       0.52417       7.05083
                        -----------------------------------------
Total Dipole Moment    :      0.05247       0.04277       0.53454
                        -----------------------------------------
Magnitude (a.u.)       :      0.53881
Magnitude (Debye)      :      1.36954

Rotational constants in cm-1:     0.011612     0.009073     0.005947
Rotational constants in MHz :   348.132374   272.016111   178.294122

                             ****ORCA TERMINATED NORMALLY****
TOTAL RUN TIME: 0 days 0 hours 3 minutes 23 seconds 113 msec
