                         Program Version 4.2.0 -  RELEASE  -
|  1> #
|  2> # MOR20_i2 ri-DSD-BLYP/2013-D3BJ/Def2-TZVPPD
|  3> #
|  4> ! rijk ri-dsd-blyp/2013 d3bj def2-tzvppd def2/jk def2-tzvppd/c grid4 nofinalgrid
|  5>
|  6> *xyz 0 1
|  7> I        0.000000    0.000000    1.341554
|  8> I        0.000000    0.000000   -1.341554
|  9> *
| 10>
| 11> %maxcore 5000
| 12>
| 13> %pal
| 14> nprocs = 24
| 15> end
| 16>
| 17>
| 18>                          ****END OF INPUT****

CARTESIAN COORDINATES (ANGSTROEM)
---------------------------------
  I      0.000000    0.000000    1.341554
  I      0.000000    0.000000   -1.341554

 Total Charge           Charge          ....    0
 Multiplicity           Mult            ....    1
 Number of Electrons    NEL             ....   50
 Basis Dimension        Dim             ....  118

ORBITAL ENERGIES
----------------

  NO   OCC          E(Eh)            E(eV)
   0   2.0000      -7.448547      -202.6853
   1   2.0000      -7.448525      -202.6847
   2   2.0000      -5.366507      -146.0301
   3   2.0000      -5.366303      -146.0245
   4   2.0000      -5.352446      -145.6475
   5   2.0000      -5.352446      -145.6475
   6   2.0000      -5.352423      -145.6468
   7   2.0000      -5.352423      -145.6468
   8   2.0000      -2.191592       -59.6362
   9   2.0000      -2.186571       -59.4996
  10   2.0000      -2.184654       -59.4475
  11   2.0000      -2.184654       -59.4475
  12   2.0000      -2.183089       -59.4049
  13   2.0000      -2.183089       -59.4049
  14   2.0000      -2.170118       -59.0519
  15   2.0000      -2.170110       -59.0517
  16   2.0000      -2.170005       -59.0488
  17   2.0000      -2.169997       -59.0486
  18   2.0000      -0.889689       -24.2097
  19   2.0000      -0.785076       -21.3630
  20   2.0000      -0.438477       -11.9316
  21   2.0000      -0.400073       -10.8865
  22   2.0000      -0.400073       -10.8865
  23   2.0000      -0.328444        -8.9374
  24   2.0000      -0.328444        -8.9374
  25   0.0000      -0.069603        -1.8940
  26   0.0000       0.035737         0.9724
  27   0.0000       0.046293         1.2597
  28   0.0000       0.046293         1.2597
  29   0.0000       0.048268         1.3134

MULLIKEN ATOMIC CHARGES
-----------------------
   0 I :    0.000003
   1 I :   -0.000003
Sum of atomic charges:   -0.0000000

LOEWDIN ATOMIC CHARGES
----------------------
   0 I :    0.000000
   1 I :   -0.000000

  Mayer bond orders larger than 0.100000
B(  0-I ,  1-I ) :   0.9906

MP2 TOTAL ENERGY:     -594.893745792 Eh
Dispersion correction           -0.004888565
FINAL SINGLE POINT ENERGY      -594.898634357761

DIPOLE MOMENT
-------------
                                X             Y             Z
Electronic contribution:      0.00000      -0.00000      -0.00000
Nuclear contribution   :      0.00000       0.00000       0.00000
                        -----------------------------------------
Total Dipole Moment    :      0.00000      -0.00000      -0.00000
                        -----------------------------------------
Magnitude (a.u.)       :      0.00000
Magnitude (Debye)      :      0.00000

Rotational constants in cm-1:     0.000000     0.036905     0.036905
Rotational constants in MHz :     0.000000  1106.393636  1106.393636

                             ****ORCA TERMINATED NORMALLY****
TOTAL RUN TIME: 0 days 0 hours 0 minutes 5 seconds 896 msec
