                         Program Version 4.2.0 -  RELEASE  -
|  1> #
|  2> # MOR24_pme3 ri-DSD-BLYP/2013-D3BJ/Def2-TZVPPD
|  3> #
|  4> ! rijk ri-dsd-blyp/2013 d3bj def2-tzvppd def2/jk def2-tzvppd/c grid4 nofinalgrid
|  5>
|  6> *xyz 0 1
|  7> P        0.000014   -0.000022   -0.608033
|  8> C        1.496142   -0.644859    0.281510
|  9> H        1.381991   -0.595756    1.371521
| 10> H        2.374450   -0.059896   -0.010082
| 11> H        1.674284   -1.684941   -0.010215
| 12> C       -0.189596    1.618079    0.281483
| 13> H       -0.175035    1.494773    1.371519
| 14> H       -1.135286    2.086341   -0.010098
| 15> H        0.622176    2.292253   -0.010285
| 16> C       -1.306577   -0.973225    0.281488
| 17> H       -1.206743   -0.899098    1.371498
| 18> H       -1.239562   -2.026308   -0.010273
| 19> H       -2.296301   -0.607013   -0.009976
| 20> *
| 21>
| 22> %maxcore 5000
| 23>
| 24> %pal
| 25> nprocs = 24
| 26> end
| 27>
| 28>
| 29>                          ****END OF INPUT****

CARTESIAN COORDINATES (ANGSTROEM)
---------------------------------
  P      0.000014   -0.000022   -0.608033
  C      1.496142   -0.644859    0.281510
  H      1.381991   -0.595756    1.371521
  H      2.374450   -0.059896   -0.010082
  H      1.674284   -1.684941   -0.010215
  C     -0.189596    1.618079    0.281483
  H     -0.175035    1.494773    1.371519
  H     -1.135286    2.086341   -0.010098
  H      0.622176    2.292253   -0.010285
  C     -1.306577   -0.973225    0.281488
  H     -1.206743   -0.899098    1.371498
  H     -1.239562   -2.026308   -0.010273
  H     -2.296301   -0.607013   -0.009976

 Total Charge           Charge          ....    0
 Multiplicity           Mult            ....    1
 Number of Electrons    NEL             ....   42
 Basis Dimension        Dim             ....  312

ORBITAL ENERGIES
----------------

  NO   OCC          E(Eh)            E(eV)
   0   2.0000     -78.896086     -2146.8717
   1   2.0000     -10.843389      -295.0636
   2   2.0000     -10.843388      -295.0636
   3   2.0000     -10.843378      -295.0633
   4   2.0000      -7.132677      -194.0900
   5   2.0000      -5.123925      -139.4291
   6   2.0000      -5.123924      -139.4291
   7   2.0000      -5.121547      -139.3644
   8   2.0000      -0.925842       -25.1934
   9   2.0000      -0.845931       -23.0190
  10   2.0000      -0.845928       -23.0189
  11   2.0000      -0.647922       -17.6308
  12   2.0000      -0.541651       -14.7391
  13   2.0000      -0.525775       -14.3071
  14   2.0000      -0.525763       -14.3067
  15   2.0000      -0.496909       -13.5216
  16   2.0000      -0.496905       -13.5215
  17   2.0000      -0.483231       -13.1494
  18   2.0000      -0.407398       -11.0859
  19   2.0000      -0.407389       -11.0856
  20   2.0000      -0.295449        -8.0396
  21   0.0000       0.050656         1.3784
  22   0.0000       0.065002         1.7688
  23   0.0000       0.065006         1.7689
  24   0.0000       0.086454         2.3525
  25   0.0000       0.115059         3.1309

MULLIKEN ATOMIC CHARGES
-----------------------
   0 P :    0.054177
   1 C :   -0.230864
   2 H :    0.073955
   3 H :    0.069357
   4 H :    0.069404
   5 C :   -0.230459
   6 H :    0.074069
   7 H :    0.069247
   8 H :    0.069172
   9 C :   -0.230790
  10 H :    0.074076
  11 H :    0.069255
  12 H :    0.069402
Sum of atomic charges:    0.0000000

LOEWDIN ATOMIC CHARGES
----------------------
   0 P :    0.872874
   1 C :   -0.095227
   2 H :   -0.060356
   3 H :   -0.067688
   4 H :   -0.067689
   5 C :   -0.095238
   6 H :   -0.060337
   7 H :   -0.067686
   8 H :   -0.067697
   9 C :   -0.095216
  10 H :   -0.060353
  11 H :   -0.067697
  12 H :   -0.067689

  Mayer bond orders larger than 0.100000
B(  0-P ,  1-C ) :   0.8698 B(  0-P ,  5-C ) :   0.8696 B(  0-P ,  9-C ) :   0.8698
B(  1-C ,  2-H ) :   0.9734 B(  1-C ,  3-H ) :   1.0149 B(  1-C ,  4-H ) :   1.0149
B(  5-C ,  6-H ) :   0.9731 B(  5-C ,  7-H ) :   1.0150 B(  5-C ,  8-H ) :   1.0151
B(  9-C , 10-H ) :   0.9733 B(  9-C , 11-H ) :   1.0151 B(  9-C , 12-H ) :   1.0149

MP2 TOTAL ENERGY:     -460.769416691 Eh
Dispersion correction           -0.010740362
FINAL SINGLE POINT ENERGY      -460.780157053181

DIPOLE MOMENT
-------------
                                X             Y             Z
Electronic contribution:      0.00005      -0.00037      -4.29819
Nuclear contribution   :     -0.00004       0.00039       4.80319
                        -----------------------------------------
Total Dipole Moment    :      0.00001       0.00002       0.50499
                        -----------------------------------------
Magnitude (a.u.)       :      0.50499
Magnitude (Debye)      :      1.28360

Rotational constants in cm-1:     0.191522     0.191510     0.123399
Rotational constants in MHz :  5741.693239  5741.320508  3699.411170

                             ****ORCA TERMINATED NORMALLY****
TOTAL RUN TIME: 0 days 0 hours 0 minutes 7 seconds 108 msec
