                         Program Version 4.2.0 -  RELEASE  -
|  1> #
|  2> # MOR30_pr12 ri-DSD-BLYP/2013-D3BJ/Def2-TZVPPD
|  3> #
|  4> ! rijk ri-dsd-blyp/2013 d3bj def2-tzvppd def2/jk def2-tzvppd/c grid4 nofinalgrid
|  5>
|  6> *xyz 0 1
|  7> Cr      -0.000015    0.000077   -0.030936
|  8> O       -3.048010    0.000059    0.176284
|  9> C       -1.899390    0.000055    0.076972
| 10> C        0.001618   -0.001981    1.838499
| 11> O        0.002800   -0.003409    2.993522
| 12> C        1.899510    0.000027    0.074271
| 13> O        3.048267   -0.000019    0.172029
| 14> C       -0.000196    1.904845   -0.051611
| 15> O       -0.000396    3.057825   -0.041163
| 16> C       -0.000244   -1.904616   -0.055186
| 17> O       -0.000506   -3.057616   -0.046760
| 18> C       -0.692601    0.002127   -2.246320
| 19> H       -1.244106   -0.917771   -2.406195
| 20> H       -1.243862    0.922423   -2.404834
| 21> C        0.689570    0.001986   -2.247230
| 22> H        1.240812    0.922165   -2.406446
| 23> H        1.240675   -0.918028   -2.407739
| 24> *
| 25>
| 26> %maxcore 5000
| 27>
| 28> %pal
| 29> nprocs = 24
| 30> end
| 31>
| 32>
| 33>                          ****END OF INPUT****

CARTESIAN COORDINATES (ANGSTROEM)
---------------------------------
  Cr    -0.000015    0.000077   -0.030936
  O     -3.048010    0.000059    0.176284
  C     -1.899390    0.000055    0.076972
  C      0.001618   -0.001981    1.838499
  O      0.002800   -0.003409    2.993522
  C      1.899510    0.000027    0.074271
  O      3.048267   -0.000019    0.172029
  C     -0.000196    1.904845   -0.051611
  O     -0.000396    3.057825   -0.041163
  C     -0.000244   -1.904616   -0.055186
  O     -0.000506   -3.057616   -0.046760
  C     -0.692601    0.002127   -2.246320
  H     -1.244106   -0.917771   -2.406195
  H     -1.243862    0.922423   -2.404834
  C      0.689570    0.001986   -2.247230
  H      1.240812    0.922165   -2.406446
  H      1.240675   -0.918028   -2.407739

 Total Charge           Charge          ....    0
 Multiplicity           Mult            ....    1
 Number of Electrons    NEL             ....  110
 Basis Dimension        Dim             ....  594

ORBITAL ENERGIES
----------------

  NO   OCC          E(Eh)            E(eV)
   0   2.0000    -218.868757     -5955.7217
   1   2.0000     -25.852188      -703.4738
   2   2.0000     -21.910998      -596.2286
   3   2.0000     -21.908124      -596.1504
   4   2.0000     -21.907207      -596.1254
   5   2.0000     -20.146258      -548.2075
   6   2.0000     -20.146254      -548.2074
   7   2.0000     -20.138651      -548.0006
   8   2.0000     -20.138651      -548.0005
   9   2.0000     -20.132023      -547.8202
  10   2.0000     -10.997688      -299.2623
  11   2.0000     -10.997685      -299.2622
  12   2.0000     -10.995823      -299.2116
  13   2.0000     -10.995822      -299.2115
  14   2.0000     -10.990459      -299.0656
  15   2.0000     -10.898822      -296.5720
  16   2.0000     -10.897744      -296.5427
  17   2.0000      -3.274239       -89.0966
  18   2.0000      -2.103549       -57.2405
  19   2.0000      -2.099622       -57.1336
  20   2.0000      -2.097968       -57.0886
  21   2.0000      -1.378715       -37.5167
  22   2.0000      -1.378533       -37.5118
  23   2.0000      -1.373104       -37.3641
  24   2.0000      -1.373013       -37.3616
  25   2.0000      -1.365302       -37.1518
  26   2.0000      -0.978961       -26.6389
  27   2.0000      -0.770624       -20.9697
  28   2.0000      -0.762890       -20.7593
  29   2.0000      -0.727892       -19.8070
  30   2.0000      -0.721262       -19.6265
  31   2.0000      -0.719602       -19.5814
  32   2.0000      -0.714546       -19.4438
  33   2.0000      -0.638418       -17.3722
  34   2.0000      -0.629919       -17.1410
  35   2.0000      -0.597694       -16.2641
  36   2.0000      -0.596659       -16.2359
  37   2.0000      -0.594980       -16.1902
  38   2.0000      -0.594782       -16.1848
  39   2.0000      -0.583379       -15.8746
  40   2.0000      -0.578642       -15.7456
  41   2.0000      -0.575957       -15.6726
  42   2.0000      -0.567141       -15.4327
  43   2.0000      -0.565444       -15.3865
  44   2.0000      -0.565093       -15.3770
  45   2.0000      -0.564259       -15.3543
  46   2.0000      -0.551805       -15.0154
  47   2.0000      -0.535105       -14.5609
  48   2.0000      -0.528385       -14.3781
  49   2.0000      -0.527685       -14.3591
  50   2.0000      -0.496848       -13.5199
  51   2.0000      -0.397595       -10.8191
  52   2.0000      -0.315992        -8.5986
  53   2.0000      -0.311319        -8.4714
  54   2.0000      -0.307749        -8.3743
  55   0.0000       0.021534         0.5860
  56   0.0000       0.031492         0.8569
  57   0.0000       0.031525         0.8578
  58   0.0000       0.035358         0.9622
  59   0.0000       0.037756         1.0274

MULLIKEN ATOMIC CHARGES
-----------------------
   0 Cr:   -0.257659
   1 O :   -0.364226
   2 C :    0.393680
   3 C :    0.443180
   4 O :   -0.367668
   5 C :    0.393580
   6 O :   -0.364258
   7 C :    0.415984
   8 O :   -0.355664
   9 C :    0.416266
  10 O :   -0.355755
  11 C :   -0.112807
  12 H :    0.056813
  13 H :    0.056940
  14 C :   -0.112230
  15 H :    0.056905
  16 H :    0.056919
Sum of atomic charges:   -0.0000000

LOEWDIN ATOMIC CHARGES
----------------------
   0 Cr:   -0.453146
   1 O :    0.125723
   2 C :   -0.071987
   3 C :   -0.079217
   4 O :    0.121137
   5 C :   -0.071998
   6 O :    0.125723
   7 C :   -0.030553
   8 O :    0.129147
   9 C :   -0.030592
  10 O :    0.129154
  11 C :    0.082115
  12 H :   -0.014412
  13 H :   -0.014388
  14 C :    0.082104
  15 H :   -0.014389
  16 H :   -0.014420

  Mayer bond orders larger than 0.100000
B(  0-Cr,  2-C ) :   0.8000 B(  0-Cr,  3-C ) :   1.0489 B(  0-Cr,  4-O ) :   0.1142
B(  0-Cr,  5-C ) :   0.7992 B(  0-Cr,  7-C ) :   0.7766 B(  0-Cr,  8-O ) :   0.1183
B(  0-Cr,  9-C ) :   0.7777 B(  0-Cr, 10-O ) :   0.1182 B(  0-Cr, 11-C ) :   0.1969
B(  0-Cr, 14-C ) :   0.1965 B(  1-O ,  2-C ) :   2.0542 B(  3-C ,  4-O ) :   2.0695
B(  5-C ,  6-O ) :   2.0540 B(  7-C ,  8-O ) :   2.0609 B(  9-C , 10-O ) :   2.0612
B( 11-C , 12-H ) :   1.0648 B( 11-C , 13-H ) :   1.0649 B( 11-C , 14-C ) :   1.4619
B( 14-C , 15-H ) :   1.0647 B( 14-C , 16-H ) :   1.0648

MP2 TOTAL ENERGY:    -1689.157975943 Eh
Dispersion correction           -0.025242224
FINAL SINGLE POINT ENERGY     -1689.183218166507

DIPOLE MOMENT
-------------
                                X             Y             Z
Electronic contribution:      0.00522      -0.00675       7.73736
Nuclear contribution   :     -0.00600       0.00791      -8.87043
                        -----------------------------------------
Total Dipole Moment    :     -0.00077       0.00117      -1.13307
                        -----------------------------------------
Magnitude (a.u.)       :      1.13307
Magnitude (Debye)      :      2.88003

Rotational constants in cm-1:     0.023439     0.023057     0.021301
Rotational constants in MHz :   702.695821   691.231713   638.589543

                             ****ORCA TERMINATED NORMALLY****
TOTAL RUN TIME: 0 days 0 hours 0 minutes 50 seconds 717 msec
