                         Program Version 4.2.0 -  RELEASE  -
|  1> #
|  2> # MOR36_pr37 ri-DSD-BLYP/2013-D3BJ/Def2-TZVPPD
|  3> #
|  4> ! rijk ri-dsd-blyp/2013 d3bj def2-tzvppd def2/jk def2-tzvppd/c grid4 nofinalgrid
|  5>
|  6> *xyz 0 1
|  7> Mo       0.000106   -0.000070   -0.471377
|  8> C        0.514398   -1.514915   -1.646050
|  9> C        1.055079    1.202350   -1.646249
| 10> C       -1.568474    0.311983   -1.646660
| 11> O       -2.484520    0.493946   -2.346732
| 12> O        0.814970   -2.399453   -2.345765
| 13> O        1.670957    1.904692   -2.346079
| 14> N       -1.133555   -1.291008    0.811792
| 15> N       -0.551576    1.627166    0.811584
| 16> N        1.684684   -0.335905    0.812231
| 17> C        2.623715   -0.523292    1.470917
| 18> C       -0.858944    2.534303    1.469905
| 19> C       -1.765652   -2.010491    1.470244
| 20> C       -2.579903   -2.936733    2.238371
| 21> H       -3.631237   -2.631169    2.207389
| 22> H       -2.252645   -2.962558    3.282907
| 23> H       -2.496617   -3.945451    1.819577
| 24> C       -1.254401    3.702555    2.237857
| 25> H       -0.464690    4.460832    2.206160
| 26> H       -1.439592    3.432273    3.282594
| 27> H       -2.170183    4.133961    1.819442
| 28> C        3.832875   -0.764956    2.239344
| 29> H        4.094105   -1.828181    2.208653
| 30> H        3.691346   -0.468421    3.283785
| 31> H        4.664793   -0.188419    1.820591
| 32> *
| 33>
| 34> %maxcore 5000
| 35>
| 36> %pal
| 37> nprocs = 24
| 38> end
| 39>
| 40>
| 41>                          ****END OF INPUT****

CARTESIAN COORDINATES (ANGSTROEM)
---------------------------------
  Mo     0.000106   -0.000070   -0.471377
  C      0.514398   -1.514915   -1.646050
  C      1.055079    1.202350   -1.646249
  C     -1.568474    0.311983   -1.646660
  O     -2.484520    0.493946   -2.346732
  O      0.814970   -2.399453   -2.345765
  O      1.670957    1.904692   -2.346079
  N     -1.133555   -1.291008    0.811792
  N     -0.551576    1.627166    0.811584
  N      1.684684   -0.335905    0.812231
  C      2.623715   -0.523292    1.470917
  C     -0.858944    2.534303    1.469905
  C     -1.765652   -2.010491    1.470244
  C     -2.579903   -2.936733    2.238371
  H     -3.631237   -2.631169    2.207389
  H     -2.252645   -2.962558    3.282907
  H     -2.496617   -3.945451    1.819577
  C     -1.254401    3.702555    2.237857
  H     -0.464690    4.460832    2.206160
  H     -1.439592    3.432273    3.282594
  H     -2.170183    4.133961    1.819442
  C      3.832875   -0.764956    2.239344
  H      4.094105   -1.828181    2.208653
  H      3.691346   -0.468421    3.283785
  H      4.664793   -0.188419    1.820591

 Total Charge           Charge          ....    0
 Multiplicity           Mult            ....    1
 Number of Electrons    NEL             ....  122
 Basis Dimension        Dim             ....  773

ORBITAL ENERGIES
----------------

  NO   OCC          E(Eh)            E(eV)
   0   2.0000     -20.047034      -545.5075
   1   2.0000     -20.047033      -545.5075
   2   2.0000     -20.047032      -545.5075
   3   2.0000     -15.156802      -412.4375
   4   2.0000     -15.156800      -412.4375
   5   2.0000     -15.156797      -412.4374
   6   2.0000     -10.923587      -297.2459
   7   2.0000     -10.923586      -297.2459
   8   2.0000     -10.923585      -297.2459
   9   2.0000     -10.919191      -297.1263
  10   2.0000     -10.919191      -297.1263
  11   2.0000     -10.919191      -297.1263
  12   2.0000     -10.907309      -296.8030
  13   2.0000     -10.907300      -296.8027
  14   2.0000     -10.907299      -296.8027
  15   2.0000      -2.783339       -75.7385
  16   2.0000      -1.691852       -46.0376
  17   2.0000      -1.688542       -45.9476
  18   2.0000      -1.688542       -45.9476
  19   2.0000      -1.277507       -34.7627
  20   2.0000      -1.276802       -34.7436
  21   2.0000      -1.276801       -34.7435
  22   2.0000      -1.136990       -30.9391
  23   2.0000      -1.134272       -30.8651
  24   2.0000      -1.134271       -30.8651
  25   2.0000      -0.962826       -26.1998
  26   2.0000      -0.962343       -26.1867
  27   2.0000      -0.962343       -26.1867
  28   2.0000      -0.673414       -18.3245
  29   2.0000      -0.657902       -17.9024
  30   2.0000      -0.657901       -17.9024
  31   2.0000      -0.646704       -17.5977
  32   2.0000      -0.637358       -17.3434
  33   2.0000      -0.637357       -17.3434
  34   2.0000      -0.588423       -16.0118
  35   2.0000      -0.585685       -15.9373
  36   2.0000      -0.585684       -15.9373
  37   2.0000      -0.584934       -15.9169
  38   2.0000      -0.584783       -15.9128
  39   2.0000      -0.584783       -15.9127
  40   2.0000      -0.584159       -15.8958
  41   2.0000      -0.566852       -15.4248
  42   2.0000      -0.566850       -15.4248
  43   2.0000      -0.504538       -13.7292
  44   2.0000      -0.500004       -13.6058
  45   2.0000      -0.500003       -13.6058
  46   2.0000      -0.489896       -13.3308
  47   2.0000      -0.489896       -13.3307
  48   2.0000      -0.486969       -13.2511
  49   2.0000      -0.481467       -13.1014
  50   2.0000      -0.465926       -12.6785
  51   2.0000      -0.465926       -12.6785
  52   2.0000      -0.451808       -12.2943
  53   2.0000      -0.451807       -12.2943
  54   2.0000      -0.449664       -12.2360
  55   2.0000      -0.437586       -11.9073
  56   2.0000      -0.435492       -11.8504
  57   2.0000      -0.435491       -11.8503
  58   2.0000      -0.203333        -5.5330
  59   2.0000      -0.200011        -5.4426
  60   2.0000      -0.200011        -5.4426
  61   0.0000       0.015596         0.4244
  62   0.0000       0.030355         0.8260
  63   0.0000       0.030359         0.8261
  64   0.0000       0.064537         1.7561
  65   0.0000       0.070376         1.9150

MULLIKEN ATOMIC CHARGES
-----------------------
   0 Mo:   -0.172344
   1 C :    0.329584
   2 C :    0.328602
   3 C :    0.329184
   4 O :   -0.420057
   5 O :   -0.419881
   6 O :   -0.419762
   7 N :   -0.080779
   8 N :   -0.081216
   9 N :   -0.081232
  10 C :    0.305742
  11 C :    0.305229
  12 C :    0.305747
  13 C :   -0.411896
  14 H :    0.111934
  15 H :    0.109252
  16 H :    0.114092
  17 C :   -0.410506
  18 H :    0.111708
  19 H :    0.109053
  20 H :    0.114018
  21 C :   -0.411813
  22 H :    0.112028
  23 H :    0.109222
  24 H :    0.114090
Sum of atomic charges:   -0.0000000

LOEWDIN ATOMIC CHARGES
----------------------
   0 Mo:    0.397970
   1 C :   -0.235207
   2 C :   -0.235218
   3 C :   -0.235215
   4 O :   -0.011655
   5 O :   -0.011651
   6 O :   -0.011653
   7 N :    0.054685
   8 N :    0.054691
   9 N :    0.054678
  10 C :   -0.098301
  11 C :   -0.098296
  12 C :   -0.098297
  13 C :    0.154826
  14 H :    0.001787
  15 H :   -0.001957
  16 H :    0.003167
  17 C :    0.154832
  18 H :    0.001787
  19 H :   -0.001959
  20 H :    0.003164
  21 C :    0.154824
  22 H :    0.001788
  23 H :   -0.001956
  24 H :    0.003167

  Mayer bond orders larger than 0.100000
B(  0-Mo,  1-C ) :   1.3325 B(  0-Mo,  2-C ) :   1.3315 B(  0-Mo,  3-C ) :   1.3327
B(  0-Mo,  7-N ) :   0.5560 B(  0-Mo,  8-N ) :   0.5560 B(  0-Mo,  9-N ) :   0.5557
B(  1-C ,  5-O ) :   1.8976 B(  2-C ,  6-O ) :   1.8975 B(  3-C ,  4-O ) :   1.8978
B(  7-N , 12-C ) :   2.6387 B(  8-N , 11-C ) :   2.6382 B(  9-N , 10-C ) :   2.6388
B( 10-C , 21-C ) :   0.7592 B( 11-C , 17-C ) :   0.7600 B( 12-C , 13-C ) :   0.7592
B( 13-C , 14-H ) :   1.0153 B( 13-C , 15-H ) :   1.0077 B( 13-C , 16-H ) :   1.0166
B( 17-C , 18-H ) :   1.0149 B( 17-C , 19-H ) :   1.0076 B( 17-C , 20-H ) :   1.0165
B( 21-C , 22-H ) :   1.0150 B( 21-C , 23-H ) :   1.0078 B( 21-C , 24-H ) :   1.0165

MP2 TOTAL ENERGY:     -805.989753404 Eh
Dispersion correction           -0.033127339
FINAL SINGLE POINT ENERGY      -806.022880742977

DIPOLE MOMENT
-------------
                                X             Y             Z
Electronic contribution:      0.00888      -0.00578     -39.91993
Nuclear contribution   :     -0.01011       0.00649      45.69854
                        -----------------------------------------
Total Dipole Moment    :     -0.00123       0.00072       5.77862
                        -----------------------------------------
Magnitude (a.u.)       :      5.77862
Magnitude (Debye)      :     14.68808

Rotational constants in cm-1:     0.011429     0.011429     0.011227
Rotational constants in MHz :   342.640201   342.631727   336.586559

                             ****ORCA TERMINATED NORMALLY****
TOTAL RUN TIME: 0 days 0 hours 1 minutes 14 seconds 708 msec
