                         Program Version 4.2.0 -  RELEASE  -
|  1> #
|  2> # MOR31_pr20 ri-DSD-BLYP/2013-D3BJ/Def2-TZVPPD
|  3> #
|  4> ! rijk ri-dsd-blyp/2013 d3bj def2-tzvppd def2/jk def2-tzvppd/c grid4 nofinalgrid
|  5>
|  6> *xyz 0 1
|  7> Ir       0.002477   -0.015286    0.083430
|  8> P       -2.348177   -0.226580   -0.058132
|  9> C       -2.872702   -1.550327   -1.188803
| 10> C       -3.160695   -0.601199    1.533451
| 11> H       -2.768983   -1.545856    1.920385
| 12> H       -3.035053    2.092169    0.038161
| 13> H       -4.244853   -0.682241    1.406776
| 14> H       -2.786362    1.529395   -1.637172
| 15> H       -3.965660   -1.602102   -1.229325
| 16> H       -2.934726    0.195116    2.248250
| 17> C       -3.202684    1.268779   -0.660861
| 18> H       -2.461852   -1.335119   -2.177902
| 19> H       -4.277134    1.082313   -0.755690
| 20> H       -2.448990   -2.494963   -0.841403
| 21> P        2.371733   -0.033051   -0.048079
| 22> C        3.118147   -1.146577    1.190097
| 23> C        2.988864   -0.646513   -1.645491
| 24> H        2.993037    2.252530   -0.586719
| 25> H        4.326367    1.397945    0.228668
| 26> H        2.927925    1.991387    1.168046
| 27> C        3.242996    1.555288    0.216058
| 28> H        4.081131   -0.719105   -1.623165
| 29> H        2.539412   -1.627874   -1.816909
| 30> H        4.198017   -1.226939    1.030710
| 31> H        2.645385   -2.126625    1.084325
| 32> H        2.665924    0.027013   -2.441495
| 33> H        2.928294   -0.762471    2.196181
| 34> C        0.041875   -0.376924    1.901008
| 35> O        0.060916   -0.624538    3.028225
| 36> Cl       0.274891   -2.517433   -0.343637
| 37> C       -0.190594    2.003978    0.494123
| 38> O       -0.529496    2.399253    1.599170
| 39> Cl      -0.136178    0.364638   -2.291447
| 40> C        0.062980    3.028488   -0.607541
| 41> H        0.210382    4.010245   -0.149220
| 42> H       -0.815546    3.056386   -1.260585
| 43> H        0.900599    2.750150   -1.247819
| 44> *
| 45>
| 46> %maxcore 5000
| 47>
| 48> %pal
| 49> nprocs = 24
| 50> end
| 51>
| 52>
| 53>                          ****END OF INPUT****

CARTESIAN COORDINATES (ANGSTROEM)
---------------------------------
  Ir     0.002477   -0.015286    0.083430
  P     -2.348177   -0.226580   -0.058132
  C     -2.872702   -1.550327   -1.188803
  C     -3.160695   -0.601199    1.533451
  H     -2.768983   -1.545856    1.920385
  H     -3.035053    2.092169    0.038161
  H     -4.244853   -0.682241    1.406776
  H     -2.786362    1.529395   -1.637172
  H     -3.965660   -1.602102   -1.229325
  H     -2.934726    0.195116    2.248250
  C     -3.202684    1.268779   -0.660861
  H     -2.461852   -1.335119   -2.177902
  H     -4.277134    1.082313   -0.755690
  H     -2.448990   -2.494963   -0.841403
  P      2.371733   -0.033051   -0.048079
  C      3.118147   -1.146577    1.190097
  C      2.988864   -0.646513   -1.645491
  H      2.993037    2.252530   -0.586719
  H      4.326367    1.397945    0.228668
  H      2.927925    1.991387    1.168046
  C      3.242996    1.555288    0.216058
  H      4.081131   -0.719105   -1.623165
  H      2.539412   -1.627874   -1.816909
  H      4.198017   -1.226939    1.030710
  H      2.645385   -2.126625    1.084325
  H      2.665924    0.027013   -2.441495
  H      2.928294   -0.762471    2.196181
  C      0.041875   -0.376924    1.901008
  O      0.060916   -0.624538    3.028225
  Cl     0.274891   -2.517433   -0.343637
  C     -0.190594    2.003978    0.494123
  O     -0.529496    2.399253    1.599170
  Cl    -0.136178    0.364638   -2.291447
  C      0.062980    3.028488   -0.607541
  H      0.210382    4.010245   -0.149220
  H     -0.815546    3.056386   -1.260585
  H      0.900599    2.750150   -1.247819

 Total Charge           Charge          ....    0
 Multiplicity           Mult            ....    1
 Number of Electrons    NEL             ....  172
 Basis Dimension        Dim             .... 1027

ORBITAL ENERGIES
----------------

  NO   OCC          E(Eh)            E(eV)
   0   2.0000    -103.576158     -2818.4506
   1   2.0000    -103.559555     -2817.9988
   2   2.0000     -78.961116     -2148.6412
   3   2.0000     -78.960373     -2148.6210
   4   2.0000     -20.149814      -548.3043
   5   2.0000     -20.027304      -544.9706
   6   2.0000     -11.023535      -299.9656
   7   2.0000     -10.945482      -297.8417
   8   2.0000     -10.874726      -295.9163
   9   2.0000     -10.871588      -295.8310
  10   2.0000     -10.867707      -295.7253
  11   2.0000     -10.867043      -295.7073
  12   2.0000     -10.858672      -295.4795
  13   2.0000     -10.856962      -295.4329
  14   2.0000     -10.844822      -295.1026
  15   2.0000     -10.093119      -274.6477
  16   2.0000     -10.075670      -274.1729
  17   2.0000      -7.665767      -208.5961
  18   2.0000      -7.663789      -208.5423
  19   2.0000      -7.663682      -208.5394
  20   2.0000      -7.648154      -208.1169
  21   2.0000      -7.646425      -208.0698
  22   2.0000      -7.646350      -208.0678
  23   2.0000      -7.196757      -195.8337
  24   2.0000      -7.196024      -195.8138
  25   2.0000      -5.188787      -141.1941
  26   2.0000      -5.188523      -141.1869
  27   2.0000      -5.188046      -141.1739
  28   2.0000      -5.187783      -141.1667
  29   2.0000      -5.187412      -141.1567
  30   2.0000      -5.186722      -141.1379
  31   2.0000      -4.090415      -111.3059
  32   2.0000      -2.335279       -63.5462
  33   2.0000      -2.325018       -63.2670
  34   2.0000      -2.319892       -63.1275
  35   2.0000      -1.382241       -37.6127
  36   2.0000      -1.252784       -34.0900
  37   2.0000      -0.969976       -26.3944
  38   2.0000      -0.965850       -26.2821
  39   2.0000      -0.925255       -25.1775
  40   2.0000      -0.899837       -24.4858
  41   2.0000      -0.897871       -24.4323
  42   2.0000      -0.880834       -23.9687
  43   2.0000      -0.880083       -23.9483
  44   2.0000      -0.873401       -23.7665
  45   2.0000      -0.871590       -23.7172
  46   2.0000      -0.752535       -20.4775
  47   2.0000      -0.702015       -19.1028
  48   2.0000      -0.684858       -18.6359
  49   2.0000      -0.670647       -18.2492
  50   2.0000      -0.638993       -17.3879
  51   2.0000      -0.602955       -16.4072
  52   2.0000      -0.597066       -16.2470
  53   2.0000      -0.579205       -15.7610
  54   2.0000      -0.574509       -15.6332
  55   2.0000      -0.566434       -15.4134
  56   2.0000      -0.560109       -15.2413
  57   2.0000      -0.557355       -15.1664
  58   2.0000      -0.555917       -15.1273
  59   2.0000      -0.551088       -14.9959
  60   2.0000      -0.543556       -14.7909
  61   2.0000      -0.541572       -14.7369
  62   2.0000      -0.530465       -14.4347
  63   2.0000      -0.525757       -14.3066
  64   2.0000      -0.525487       -14.2992
  65   2.0000      -0.516108       -14.0440
  66   2.0000      -0.508714       -13.8428
  67   2.0000      -0.507382       -13.8066
  68   2.0000      -0.482585       -13.1318
  69   2.0000      -0.468046       -12.7362
  70   2.0000      -0.462651       -12.5894
  71   2.0000      -0.461570       -12.5600
  72   2.0000      -0.451316       -12.2809
  73   2.0000      -0.449064       -12.2196
  74   2.0000      -0.444491       -12.0952
  75   2.0000      -0.425893       -11.5891
  76   2.0000      -0.416873       -11.3437
  77   2.0000      -0.402830       -10.9616
  78   2.0000      -0.400154       -10.8887
  79   2.0000      -0.395609       -10.7651
  80   2.0000      -0.362440        -9.8625
  81   2.0000      -0.343578        -9.3492
  82   2.0000      -0.334582        -9.1044
  83   2.0000      -0.331321        -9.0157
  84   2.0000      -0.325512        -8.8576
  85   2.0000      -0.302081        -8.2200
  86   0.0000       0.028013         0.7623
  87   0.0000       0.031132         0.8471
  88   0.0000       0.034976         0.9518
  89   0.0000       0.041313         1.1242
  90   0.0000       0.059426         1.6171

MULLIKEN ATOMIC CHARGES
-----------------------
   0 Ir:    1.569388
   1 P :    0.794548
   2 C :   -0.504043
   3 C :   -0.443508
   4 H :    0.077280
   5 H :    0.048127
   6 H :    0.137983
   7 H :    0.073455
   8 H :    0.152541
   9 H :    0.061629
  10 C :   -0.422170
  11 H :    0.066560
  12 H :    0.135926
  13 H :    0.102955
  14 P :    0.672392
  15 C :   -0.475102
  16 C :   -0.446083
  17 H :    0.076039
  18 H :    0.135059
  19 H :    0.045322
  20 C :   -0.364966
  21 H :    0.156538
  22 H :    0.057074
  23 H :    0.141943
  24 H :    0.109360
  25 H :    0.089340
  26 H :    0.048490
  27 C :    0.356162
  28 O :   -0.457480
  29 Cl:   -0.744457
  30 C :    0.518873
  31 O :   -0.685546
  32 Cl:   -0.737912
  33 C :   -0.544325
  34 H :    0.029557
  35 H :    0.096455
  36 H :    0.072595
Sum of atomic charges:   -0.0000000

LOEWDIN ATOMIC CHARGES
----------------------
   0 Ir:    0.514119
   1 P :    0.799521
   2 C :   -0.035868
   3 C :    0.004829
   4 H :   -0.043549
   5 H :   -0.047534
   6 H :   -0.042407
   7 H :   -0.068055
   8 H :   -0.042542
   9 H :   -0.043485
  10 C :   -0.001250
  11 H :   -0.073561
  12 H :   -0.041888
  13 H :   -0.089821
  14 P :    0.794339
  15 C :   -0.015268
  16 C :   -0.038759
  17 H :   -0.057621
  18 H :   -0.042863
  19 H :   -0.042032
  20 C :    0.008282
  21 H :   -0.042385
  22 H :   -0.079753
  23 H :   -0.042362
  24 H :   -0.081979
  25 H :   -0.079981
  26 H :   -0.049843
  27 C :   -0.349724
  28 O :    0.109807
  29 Cl:   -0.128107
  30 C :   -0.530022
  31 O :   -0.079856
  32 Cl:   -0.024052
  33 C :    0.090481
  34 H :   -0.006164
  35 H :   -0.034395
  36 H :   -0.066252

  Mayer bond orders larger than 0.100000
B(  0-Ir,  1-P ) :   0.3676 B(  0-Ir, 14-P ) :   0.4741 B(  0-Ir, 27-C ) :   0.8313
B(  0-Ir, 29-Cl) :   0.1628 B(  0-Ir, 30-C ) :   0.6010 B(  0-Ir, 32-Cl) :   0.1127
B(  0-Ir, 33-C ) :   0.1146 B(  1-P ,  2-C ) :   0.9280 B(  1-P ,  3-C ) :   0.7207
B(  1-P , 10-C ) :   0.8098 B(  1-P , 30-C ) :   0.1512 B(  1-P , 32-Cl) :   0.1632
B(  2-C ,  8-H ) :   0.9742 B(  2-C , 11-H ) :   0.9976 B(  2-C , 13-H ) :   0.9856
B(  3-C ,  4-H ) :   1.0100 B(  3-C ,  6-H ) :   0.9830 B(  3-C ,  9-H ) :   1.0223
B(  5-H , 10-C ) :   1.0187 B(  7-H , 10-C ) :   1.0184 B( 10-C , 12-H ) :   0.9790
B( 14-P , 15-C ) :   0.7774 B( 14-P , 16-C ) :   0.9561 B( 14-P , 20-C ) :   0.7057
B( 14-P , 29-Cl) :   0.1958 B( 14-P , 32-Cl) :   0.1641 B( 15-C , 23-H ) :   0.9778
B( 15-C , 24-H ) :   1.0284 B( 15-C , 26-H ) :   1.0126 B( 16-C , 21-H ) :   0.9737
B( 16-C , 22-H ) :   0.9935 B( 16-C , 25-H ) :   0.9862 B( 17-H , 20-C ) :   0.9965
B( 18-H , 20-C ) :   0.9878 B( 19-H , 20-C ) :   1.0140 B( 27-C , 28-O ) :   2.1180
B( 27-C , 30-C ) :   0.1594 B( 30-C , 31-O ) :   1.5363 B( 30-C , 33-C ) :   1.0172
B( 33-C , 34-H ) :   1.1021 B( 33-C , 35-H ) :   0.9584 B( 33-C , 36-H ) :   1.0115

MP2 TOTAL ENERGY:    -2212.363028847 Eh
Dispersion correction           -0.064512780
FINAL SINGLE POINT ENERGY     -2212.427541626943

DIPOLE MOMENT
-------------
                                X             Y             Z
Electronic contribution:      0.20491      -7.81088      12.21547
Nuclear contribution   :     -0.04564       8.50954     -11.91616
                        -----------------------------------------
Total Dipole Moment    :      0.15927       0.69865       0.29931
                        -----------------------------------------
Magnitude (a.u.)       :      0.77658
Magnitude (Debye)      :      1.97390

Rotational constants in cm-1:     0.013559     0.009254     0.008806
Rotational constants in MHz :   406.483484   277.425577   264.007304

                             ****ORCA TERMINATED NORMALLY****
TOTAL RUN TIME: 0 days 0 hours 3 minutes 29 seconds 204 msec
