                         Program Version 4.2.0 -  RELEASE  -
|  1> #
|  2> # MOR35_pr36 ri-DSD-BLYP/2013-D3BJ/Def2-TZVPPD
|  3> #
|  4> ! rijk ri-dsd-blyp/2013 d3bj def2-tzvppd def2/jk def2-tzvppd/c grid4 nofinalgrid
|  5>
|  6> *xyz 0 1
|  7> Mo       0.001156    0.812745    0.000207
|  8> C        1.172497    1.772826   -1.694485
|  9> C        0.639726    0.579325   -2.273801
| 10> C       -0.771247    0.649846   -2.254302
| 11> C       -1.164711    1.879753   -1.653638
| 12> C        0.046469    2.597671   -1.356619
| 13> H        2.218029    2.030602   -1.618416
| 14> H        1.217264   -0.260486   -2.625291
| 15> H       -1.439014   -0.129218   -2.585395
| 16> H       -2.178363    2.230425   -1.528995
| 17> H        0.103229    3.616282   -1.010207
| 18> C       -0.046468    2.595414    1.359819
| 19> C       -1.170703    1.767726    1.696458
| 20> C        0.775662    0.648005    2.254259
| 21> C        1.166251    1.879509    1.655532
| 22> H       -2.216820    2.023173    1.620920
| 23> H       -1.210568   -0.267639    2.623707
| 24> C       -0.635131    0.574168    2.273601
| 25> H        2.179106    2.232469    1.530897
| 26> H       -0.105362    3.614384    1.014912
| 27> H        1.445278   -0.130208    2.583598
| 28> I        1.897907   -1.310822   -0.012606
| 29> I       -1.900461   -1.307301    0.011561
| 30> *
| 31>
| 32> %maxcore 5000
| 33>
| 34> %pal
| 35> nprocs = 24
| 36> end
| 37>
| 38>
| 39>                          ****END OF INPUT****

CARTESIAN COORDINATES (ANGSTROEM)
---------------------------------
  Mo     0.001156    0.812745    0.000207
  C      1.172497    1.772826   -1.694485
  C      0.639726    0.579325   -2.273801
  C     -0.771247    0.649846   -2.254302
  C     -1.164711    1.879753   -1.653638
  C      0.046469    2.597671   -1.356619
  H      2.218029    2.030602   -1.618416
  H      1.217264   -0.260486   -2.625291
  H     -1.439014   -0.129218   -2.585395
  H     -2.178363    2.230425   -1.528995
  H      0.103229    3.616282   -1.010207
  C     -0.046468    2.595414    1.359819
  C     -1.170703    1.767726    1.696458
  C      0.775662    0.648005    2.254259
  C      1.166251    1.879509    1.655532
  H     -2.216820    2.023173    1.620920
  H     -1.210568   -0.267639    2.623707
  C     -0.635131    0.574168    2.273601
  H      2.179106    2.232469    1.530897
  H     -0.105362    3.614384    1.014912
  H      1.445278   -0.130208    2.583598
  I      1.897907   -1.310822   -0.012606
  I     -1.900461   -1.307301    0.011561

 Total Charge           Charge          ....    0
 Multiplicity           Mult            ....    1
 Number of Electrons    NEL             ....  134
 Basis Dimension        Dim             ....  714

ORBITAL ENERGIES
----------------

  NO   OCC          E(Eh)            E(eV)
   0   2.0000     -10.916281      -297.0471
   1   2.0000     -10.916272      -297.0469
   2   2.0000     -10.906670      -296.7856
   3   2.0000     -10.906641      -296.7848
   4   2.0000     -10.904659      -296.7309
   5   2.0000     -10.904604      -296.7294
   6   2.0000     -10.902466      -296.6712
   7   2.0000     -10.902442      -296.6705
   8   2.0000     -10.901320      -296.6400
   9   2.0000     -10.901300      -296.6394
  10   2.0000      -7.353462      -200.0979
  11   2.0000      -7.353452      -200.0976
  12   2.0000      -5.266136      -143.2989
  13   2.0000      -5.266128      -143.2986
  14   2.0000      -5.260469      -143.1446
  15   2.0000      -5.260457      -143.1443
  16   2.0000      -5.260254      -143.1388
  17   2.0000      -5.260243      -143.1385
  18   2.0000      -2.930992       -79.7564
  19   2.0000      -2.088802       -56.8392
  20   2.0000      -2.088774       -56.8384
  21   2.0000      -2.086772       -56.7840
  22   2.0000      -2.086757       -56.7836
  23   2.0000      -2.086523       -56.7772
  24   2.0000      -2.086465       -56.7756
  25   2.0000      -2.080825       -56.6221
  26   2.0000      -2.080809       -56.6217
  27   2.0000      -2.080777       -56.6208
  28   2.0000      -2.080764       -56.6205
  29   2.0000      -1.845359       -50.2148
  30   2.0000      -1.828481       -49.7555
  31   2.0000      -1.814481       -49.3745
  32   2.0000      -1.123770       -30.5793
  33   2.0000      -1.106767       -30.1167
  34   2.0000      -0.929686       -25.2980
  35   2.0000      -0.921691       -25.0805
  36   2.0000      -0.919740       -25.0274
  37   2.0000      -0.918037       -24.9811
  38   2.0000      -0.768567       -20.9138
  39   2.0000      -0.759211       -20.6592
  40   2.0000      -0.734074       -19.9752
  41   2.0000      -0.711425       -19.3589
  42   2.0000      -0.710192       -19.3253
  43   2.0000      -0.709322       -19.3016
  44   2.0000      -0.695460       -18.9244
  45   2.0000      -0.684114       -18.6157
  46   2.0000      -0.555654       -15.1201
  47   2.0000      -0.552247       -15.0274
  48   2.0000      -0.550199       -14.9717
  49   2.0000      -0.549360       -14.9488
  50   2.0000      -0.547965       -14.9109
  51   2.0000      -0.526936       -14.3387
  52   2.0000      -0.520906       -14.1746
  53   2.0000      -0.517498       -14.0818
  54   2.0000      -0.515126       -14.0173
  55   2.0000      -0.492030       -13.3888
  56   2.0000      -0.392077       -10.6690
  57   2.0000      -0.386603       -10.5200
  58   2.0000      -0.379015       -10.3135
  59   2.0000      -0.358229        -9.7479
  60   2.0000      -0.349049        -9.4981
  61   2.0000      -0.339395        -9.2354
  62   2.0000      -0.328825        -8.9478
  63   2.0000      -0.281316        -7.6550
  64   2.0000      -0.278795        -7.5864
  65   2.0000      -0.269802        -7.3417
  66   2.0000      -0.266356        -7.2479
  67   0.0000       0.005337         0.1452
  68   0.0000       0.010703         0.2913
  69   0.0000       0.028050         0.7633
  70   0.0000       0.030555         0.8314
  71   0.0000       0.036552         0.9946

MULLIKEN ATOMIC CHARGES
-----------------------
   0 Mo:   -0.637091
   1 C :    0.344149
   2 C :   -0.253173
   3 C :   -0.297861
   4 C :    0.399215
   5 C :    0.059158
   6 H :   -0.064282
   7 H :    0.179450
   8 H :    0.198315
   9 H :   -0.009519
  10 H :    0.169329
  11 C :    0.060928
  12 C :    0.344953
  13 C :   -0.296362
  14 C :    0.396504
  15 H :   -0.065315
  16 H :    0.178629
  17 C :   -0.253059
  18 H :   -0.009135
  19 H :    0.169032
  20 H :    0.198845
  21 I :   -0.406538
  22 I :   -0.406173
Sum of atomic charges:    0.0000000

LOEWDIN ATOMIC CHARGES
----------------------
   0 Mo:    0.743496
   1 C :   -0.081948
   2 C :   -0.141479
   3 C :   -0.135516
   4 C :   -0.067903
   5 C :   -0.077892
   6 H :    0.008074
   7 H :   -0.045556
   8 H :   -0.046985
   9 H :    0.010820
  10 H :    0.001596
  11 C :   -0.077853
  12 C :   -0.082548
  13 C :   -0.135497
  14 C :   -0.067451
  15 H :    0.007954
  16 H :   -0.045828
  17 C :   -0.142062
  18 H :    0.010858
  19 H :    0.001572
  20 H :   -0.047133
  21 I :    0.205357
  22 I :    0.205923

  Mayer bond orders larger than 0.100000
B(  0-Mo,  1-C ) :   0.3132 B(  0-Mo,  2-C ) :   0.6160 B(  0-Mo,  3-C ) :   0.5938
B(  0-Mo,  4-C ) :   0.2955 B(  0-Mo,  5-C ) :   0.7623 B(  0-Mo, 11-C ) :   0.7623
B(  0-Mo, 12-C ) :   0.3141 B(  0-Mo, 13-C ) :   0.5945 B(  0-Mo, 14-C ) :   0.2945
B(  0-Mo, 17-C ) :   0.6151 B(  0-Mo, 21-I ) :   0.7750 B(  0-Mo, 22-I ) :   0.7747
B(  1-C ,  2-C ) :   0.9881 B(  1-C ,  3-C ) :  -0.2514 B(  1-C ,  4-C ) :  -0.1070
B(  1-C ,  5-C ) :   1.1778 B(  1-C ,  6-H ) :   0.9873 B(  1-C , 11-C ) :  -0.1068
B(  1-C , 14-C ) :   0.3397 B(  2-C ,  3-C ) :   1.2272 B(  2-C ,  4-C ) :  -0.2428
B(  2-C ,  7-H ) :   1.0216 B(  2-C , 21-I ) :   0.1859 B(  3-C ,  4-C ) :   1.0008
B(  3-C ,  8-H ) :   1.0139 B(  3-C , 22-I ) :   0.2171 B(  4-C ,  5-C ) :   1.1950
B(  4-C ,  9-H ) :   0.9668 B(  4-C , 11-C ) :  -0.1227 B(  4-C , 12-C ) :   0.3386
B(  5-C , 10-H ) :   0.8777 B(  5-C , 12-C ) :  -0.1050 B(  5-C , 14-C ) :  -0.1242
B(  7-H , 21-I ) :  -0.1610 B(  8-H , 22-I ) :  -0.1777 B( 11-C , 12-C ) :   1.1783
B( 11-C , 14-C ) :   1.1923 B( 11-C , 19-H ) :   0.8780 B( 12-C , 13-C ) :  -0.2519
B( 12-C , 14-C ) :  -0.1074 B( 12-C , 15-H ) :   0.9870 B( 12-C , 17-C ) :   0.9874
B( 13-C , 14-C ) :   1.0037 B( 13-C , 17-C ) :   1.2298 B( 13-C , 20-H ) :   1.0136
B( 13-C , 21-I ) :   0.2163 B( 14-C , 17-C ) :  -0.2416 B( 14-C , 18-H ) :   0.9672
B( 16-H , 17-C ) :   1.0221 B( 16-H , 22-I ) :  -0.1600 B( 17-C , 22-I ) :   0.1864
B( 20-H , 21-I ) :  -0.1779

MP2 TOTAL ENERGY:    -1049.845311722 Eh
Dispersion correction           -0.049879953
FINAL SINGLE POINT ENERGY     -1049.895191675242

DIPOLE MOMENT
-------------
                                X             Y             Z
Electronic contribution:     -0.09758    -123.70840      -0.05592
Nuclear contribution   :      0.10150     127.02090       0.05751
                        -----------------------------------------
Total Dipole Moment    :      0.00392       3.31250       0.00158
                        -----------------------------------------
Magnitude (a.u.)       :      3.31251
Magnitude (Debye)      :      8.41972

Rotational constants in cm-1:     0.012573     0.011263     0.008836
Rotational constants in MHz :   376.926737   337.652277   264.898337

                             ****ORCA TERMINATED NORMALLY****
TOTAL RUN TIME: 0 days 0 hours 2 minutes 3 seconds 742 msec
