                         Program Version 4.2.0 -  RELEASE  -
|  1> #
|  2> # MOR37_pr38 ri-DSD-BLYP/2013-D3BJ/Def2-TZVPPD
|  3> #
|  4> ! rijk ri-dsd-blyp/2013 d3bj def2-tzvppd def2/jk def2-tzvppd/c grid4 nofinalgrid
|  5>
|  6> *xyz 0 1
|  7> Mo       0.000368   -0.000951   -0.664236
|  8> C        1.186218    1.095679   -1.824431
|  9> C       -1.543342    0.475450   -1.823831
| 10> C        0.358600   -1.578355   -1.821075
| 11> O        0.584740   -2.492846   -2.512436
| 12> O        1.864319    1.747384   -2.517871
| 13> O       -2.447606    0.735637   -2.516687
| 14> P        1.980785   -0.729448    0.688588
| 15> P       -1.623545   -1.348294    0.688464
| 16> P       -0.357708    2.080403    0.685812
| 17> C       -1.633250    3.223236    0.009653
| 18> H       -1.705660    4.145387    0.596929
| 19> H       -2.603028    2.718106    0.000627
| 20> H       -1.373511    3.465952   -1.024212
| 21> C       -0.858884    2.043709    2.465539
| 22> H       -1.825180    1.541749    2.565977
| 23> H       -0.943418    3.056285    2.875390
| 24> H       -0.120247    1.484663    3.045786
| 25> C        1.092608    3.215640    0.782943
| 26> H        0.848407    4.138527    1.320517
| 27> H        1.418994    3.459201   -0.231490
| 28> H        1.920240    2.713456    1.291867
| 29> C       -1.984130   -3.020964    0.008508
| 30> H       -2.747676   -3.543086    0.595776
| 31> H       -1.064326   -3.612180   -0.003877
| 32> H       -2.325682   -2.913010   -1.024422
| 33> C       -1.336917   -1.769970    2.466070
| 34> H       -2.171293   -2.349509    2.876428
| 35> H       -1.219304   -0.852646    3.048800
| 36> H       -0.419591   -2.357379    2.562237
| 37> C       -3.329045   -0.653966    0.792955
| 38> H       -4.006858   -1.325859    1.330979
| 39> H       -3.705797   -0.489375   -0.219919
| 40> H       -3.303097    0.312486    1.304224
| 41> C        3.608641   -0.198569    0.011444
| 42> H        4.443241   -0.596886    0.599054
| 43> H        3.657034    0.893802    0.001026
| 44> H        3.688452   -0.546249   -1.021993
| 45> C        2.199807   -0.272940    2.467201
| 46> H        3.119209   -0.704894    2.877753
| 47> H        1.346620   -0.631939    3.048604
| 48> H        2.248134    0.815142    2.564989
| 49> C        2.238042   -2.552971    0.789569
| 50> H        3.157648   -2.802349    1.330381
| 51> H        2.288935   -2.958854   -0.224143
| 52> H        1.387609   -3.017788    1.296348
| 53> *
| 54>
| 55> %maxcore 5000
| 56>
| 57> %pal
| 58> nprocs = 24
| 59> end
| 60>
| 61>
| 62>                          ****END OF INPUT****

CARTESIAN COORDINATES (ANGSTROEM)
---------------------------------
  Mo     0.000368   -0.000951   -0.664236
  C      1.186218    1.095679   -1.824431
  C     -1.543342    0.475450   -1.823831
  C      0.358600   -1.578355   -1.821075
  O      0.584740   -2.492846   -2.512436
  O      1.864319    1.747384   -2.517871
  O     -2.447606    0.735637   -2.516687
  P      1.980785   -0.729448    0.688588
  P     -1.623545   -1.348294    0.688464
  P     -0.357708    2.080403    0.685812
  C     -1.633250    3.223236    0.009653
  H     -1.705660    4.145387    0.596929
  H     -2.603028    2.718106    0.000627
  H     -1.373511    3.465952   -1.024212
  C     -0.858884    2.043709    2.465539
  H     -1.825180    1.541749    2.565977
  H     -0.943418    3.056285    2.875390
  H     -0.120247    1.484663    3.045786
  C      1.092608    3.215640    0.782943
  H      0.848407    4.138527    1.320517
  H      1.418994    3.459201   -0.231490
  H      1.920240    2.713456    1.291867
  C     -1.984130   -3.020964    0.008508
  H     -2.747676   -3.543086    0.595776
  H     -1.064326   -3.612180   -0.003877
  H     -2.325682   -2.913010   -1.024422
  C     -1.336917   -1.769970    2.466070
  H     -2.171293   -2.349509    2.876428
  H     -1.219304   -0.852646    3.048800
  H     -0.419591   -2.357379    2.562237
  C     -3.329045   -0.653966    0.792955
  H     -4.006858   -1.325859    1.330979
  H     -3.705797   -0.489375   -0.219919
  H     -3.303097    0.312486    1.304224
  C      3.608641   -0.198569    0.011444
  H      4.443241   -0.596886    0.599054
  H      3.657034    0.893802    0.001026
  H      3.688452   -0.546249   -1.021993
  C      2.199807   -0.272940    2.467201
  H      3.119209   -0.704894    2.877753
  H      1.346620   -0.631939    3.048604
  H      2.248134    0.815142    2.564989
  C      2.238042   -2.552971    0.789569
  H      3.157648   -2.802349    1.330381
  H      2.288935   -2.958854   -0.224143
  H      1.387609   -3.017788    1.296348

 Total Charge           Charge          ....    0
 Multiplicity           Mult            ....    1
 Number of Electrons    NEL             ....  182
 Basis Dimension        Dim             .... 1223

ORBITAL ENERGIES
----------------

  NO   OCC          E(Eh)            E(eV)
   0   2.0000     -78.927406     -2147.7239
   1   2.0000     -78.927395     -2147.7236
   2   2.0000     -78.927378     -2147.7231
   3   2.0000     -20.075646      -546.2861
   4   2.0000     -20.075644      -546.2860
   5   2.0000     -20.075623      -546.2855
   6   2.0000     -10.939489      -297.6786
   7   2.0000     -10.939481      -297.6784
   8   2.0000     -10.939474      -297.6782
   9   2.0000     -10.860880      -295.5396
  10   2.0000     -10.860875      -295.5394
  11   2.0000     -10.860862      -295.5391
  12   2.0000     -10.854938      -295.3779
  13   2.0000     -10.854915      -295.3773
  14   2.0000     -10.854883      -295.3764
  15   2.0000     -10.851600      -295.2871
  16   2.0000     -10.851579      -295.2865
  17   2.0000     -10.851550      -295.2857
  18   2.0000      -7.162853      -194.9111
  19   2.0000      -7.162843      -194.9109
  20   2.0000      -7.162830      -194.9105
  21   2.0000      -5.154797      -140.2692
  22   2.0000      -5.154787      -140.2689
  23   2.0000      -5.154772      -140.2685
  24   2.0000      -5.154659      -140.2654
  25   2.0000      -5.154647      -140.2651
  26   2.0000      -5.154633      -140.2647
  27   2.0000      -5.152576      -140.2087
  28   2.0000      -5.152567      -140.2085
  29   2.0000      -5.152556      -140.2082
  30   2.0000      -2.803105       -76.2764
  31   2.0000      -1.708808       -46.4990
  32   2.0000      -1.708799       -46.4988
  33   2.0000      -1.708069       -46.4789
  34   2.0000      -1.305818       -35.5331
  35   2.0000      -1.305168       -35.5154
  36   2.0000      -1.305155       -35.5151
  37   2.0000      -0.950835       -25.8735
  38   2.0000      -0.944893       -25.7118
  39   2.0000      -0.944888       -25.7117
  40   2.0000      -0.868354       -23.6291
  41   2.0000      -0.865106       -23.5407
  42   2.0000      -0.865050       -23.5392
  43   2.0000      -0.860309       -23.4102
  44   2.0000      -0.860274       -23.4093
  45   2.0000      -0.859136       -23.3783
  46   2.0000      -0.694664       -18.9028
  47   2.0000      -0.668984       -18.2040
  48   2.0000      -0.668974       -18.2037
  49   2.0000      -0.666562       -18.1381
  50   2.0000      -0.665527       -18.1099
  51   2.0000      -0.665511       -18.1095
  52   2.0000      -0.577354       -15.7106
  53   2.0000      -0.563411       -15.3312
  54   2.0000      -0.563342       -15.3293
  55   2.0000      -0.550824       -14.9887
  56   2.0000      -0.550754       -14.9868
  57   2.0000      -0.548760       -14.9325
  58   2.0000      -0.544383       -14.8134
  59   2.0000      -0.539655       -14.6848
  60   2.0000      -0.539652       -14.6847
  61   2.0000      -0.537938       -14.6380
  62   2.0000      -0.528487       -14.3809
  63   2.0000      -0.528431       -14.3793
  64   2.0000      -0.523132       -14.2351
  65   2.0000      -0.521639       -14.1945
  66   2.0000      -0.521609       -14.1937
  67   2.0000      -0.515784       -14.0352
  68   2.0000      -0.509155       -13.8548
  69   2.0000      -0.509090       -13.8530
  70   2.0000      -0.508778       -13.8446
  71   2.0000      -0.504353       -13.7241
  72   2.0000      -0.504317       -13.7232
  73   2.0000      -0.502586       -13.6761
  74   2.0000      -0.497715       -13.5435
  75   2.0000      -0.497675       -13.5424
  76   2.0000      -0.497544       -13.5389
  77   2.0000      -0.494557       -13.4576
  78   2.0000      -0.494528       -13.4568
  79   2.0000      -0.434539       -11.8244
  80   2.0000      -0.432554       -11.7704
  81   2.0000      -0.432524       -11.7696
  82   2.0000      -0.424861       -11.5611
  83   2.0000      -0.424853       -11.5608
  84   2.0000      -0.423437       -11.5223
  85   2.0000      -0.360336        -9.8052
  86   2.0000      -0.343064        -9.3352
  87   2.0000      -0.343024        -9.3342
  88   2.0000      -0.236740        -6.4420
  89   2.0000      -0.236734        -6.4419
  90   2.0000      -0.235232        -6.4010
  91   0.0000       0.023197         0.6312
  92   0.0000       0.043206         1.1757
  93   0.0000       0.043237         1.1765
  94   0.0000       0.049996         1.3605
  95   0.0000       0.060816         1.6549

MULLIKEN ATOMIC CHARGES
-----------------------
   0 Mo:   -0.121384
   1 C :    0.213448
   2 C :    0.214689
   3 C :    0.207436
   4 O :   -0.453119
   5 O :   -0.453280
   6 O :   -0.453322
   7 P :    1.231164
   8 P :    1.222718
   9 P :    1.223517
  10 C :   -0.582442
  11 H :    0.136962
  12 H :    0.059884
  13 H :    0.046372
  14 C :   -0.488176
  15 H :    0.042527
  16 H :    0.119070
  17 H :    0.003227
  18 C :   -0.460520
  19 H :    0.115112
  20 H :    0.054050
  21 H :    0.013470
  22 C :   -0.582315
  23 H :    0.136456
  24 H :    0.060854
  25 H :    0.046747
  26 C :   -0.491979
  27 H :    0.118257
  28 H :    0.005131
  29 H :    0.041943
  30 C :   -0.461744
  31 H :    0.114545
  32 H :    0.054596
  33 H :    0.012486
  34 C :   -0.582771
  35 H :    0.136104
  36 H :    0.060104
  37 H :    0.047219
  38 C :   -0.491226
  39 H :    0.119041
  40 H :    0.004927
  41 H :    0.041456
  42 C :   -0.461780
  43 H :    0.113326
  44 H :    0.053861
  45 H :    0.013359
Sum of atomic charges:   -0.0000000

LOEWDIN ATOMIC CHARGES
----------------------
   0 Mo:    0.048427
   1 C :   -0.275020
   2 C :   -0.275105
   3 C :   -0.275061
   4 O :    0.002406
   5 O :    0.002444
   6 O :    0.002383
   7 P :    0.859609
   8 P :    0.859511
   9 P :    0.859577
  10 C :   -0.022279
  11 H :   -0.050803
  12 H :   -0.058692
  13 H :   -0.048948
  14 C :   -0.023593
  15 H :   -0.075647
  16 H :   -0.049638
  17 H :   -0.074452
  18 C :   -0.017900
  19 H :   -0.049521
  20 H :   -0.058474
  21 H :   -0.073083
  22 C :   -0.022340
  23 H :   -0.050834
  24 H :   -0.058533
  25 H :   -0.048954
  26 C :   -0.023763
  27 H :   -0.049679
  28 H :   -0.074190
  29 H :   -0.075543
  30 C :   -0.017818
  31 H :   -0.049483
  32 H :   -0.058442
  33 H :   -0.073459
  34 C :   -0.022348
  35 H :   -0.050800
  36 H :   -0.058645
  37 H :   -0.048985
  38 C :   -0.023824
  39 H :   -0.049688
  40 H :   -0.074304
  41 H :   -0.075482
  42 C :   -0.017882
  43 H :   -0.049522
  44 H :   -0.058425
  45 H :   -0.073198

  Mayer bond orders larger than 0.100000
B(  0-Mo,  1-C ) :   1.3491 B(  0-Mo,  2-C ) :   1.3506 B(  0-Mo,  3-C ) :   1.3352
B(  0-Mo,  7-P ) :   0.1374 B(  0-Mo,  8-P ) :   0.1421 B(  0-Mo,  9-P ) :   0.1604
B(  0-Mo, 10-C ) :   0.1113 B(  0-Mo, 22-C ) :   0.1119 B(  0-Mo, 34-C ) :   0.1105
B(  1-C ,  2-C ) :  -0.1518 B(  1-C ,  3-C ) :  -0.1500 B(  1-C ,  5-O ) :   1.8566
B(  2-C ,  3-C ) :  -0.1503 B(  2-C ,  6-O ) :   1.8576 B(  3-C ,  4-O ) :   1.8566
B(  7-P ,  8-P ) :   0.2093 B(  7-P ,  9-P ) :   0.2069 B(  7-P , 34-C ) :   0.6081
B(  7-P , 38-C ) :   0.7420 B(  7-P , 42-C ) :   0.6567 B(  8-P ,  9-P ) :   0.2091
B(  8-P , 22-C ) :   0.6083 B(  8-P , 26-C ) :   0.7434 B(  8-P , 30-C ) :   0.6556
B(  9-P , 10-C ) :   0.6109 B(  9-P , 14-C ) :   0.7429 B(  9-P , 18-C ) :   0.6575
B( 10-C , 11-H ) :   0.9936 B( 10-C , 12-H ) :   1.0118 B( 10-C , 13-H ) :   1.0361
B( 10-C , 14-C ) :   0.1002 B( 10-C , 18-C ) :   0.1209 B( 14-C , 15-H ) :   0.9981
B( 14-C , 16-H ) :   1.0265 B( 14-C , 17-H ) :   1.0310 B( 14-C , 18-C ) :   0.1350
B( 18-C , 19-H ) :   1.0135 B( 18-C , 20-H ) :   1.0020 B( 18-C , 21-H ) :   1.0073
B( 22-C , 23-H ) :   0.9941 B( 22-C , 24-H ) :   1.0107 B( 22-C , 25-H ) :   1.0369
B( 22-C , 30-C ) :   0.1213 B( 26-C , 27-H ) :   1.0276 B( 26-C , 28-H ) :   1.0312
B( 26-C , 29-H ) :   0.9985 B( 26-C , 30-C ) :   0.1357 B( 30-C , 31-H ) :   1.0142
B( 30-C , 32-H ) :   1.0025 B( 30-C , 33-H ) :   1.0081 B( 34-C , 35-H ) :   0.9941
B( 34-C , 36-H ) :   1.0114 B( 34-C , 37-H ) :   1.0350 B( 34-C , 38-C ) :   0.1001
B( 34-C , 42-C ) :   0.1212 B( 38-C , 39-H ) :   1.0272 B( 38-C , 40-H ) :   1.0307
B( 38-C , 41-H ) :   0.9984 B( 38-C , 42-C ) :   0.1355 B( 42-C , 43-H ) :   1.0152
B( 42-C , 44-H ) :   1.0024 B( 42-C , 45-H ) :   1.0076

MP2 TOTAL ENERGY:    -1790.431992567 Eh
Dispersion correction           -0.079452805
FINAL SINGLE POINT ENERGY     -1790.511445371978

DIPOLE MOMENT
-------------
                                X             Y             Z
Electronic contribution:      0.03071      -0.08884     -63.04300
Nuclear contribution   :     -0.03125       0.09337      66.31953
                        -----------------------------------------
Total Dipole Moment    :     -0.00055       0.00453       3.27653
                        -----------------------------------------
Magnitude (a.u.)       :      3.27653
Magnitude (Debye)      :      8.32828

Rotational constants in cm-1:     0.008677     0.008672     0.007610
Rotational constants in MHz :   260.126059   259.983430   228.154635

                             ****ORCA TERMINATED NORMALLY****
TOTAL RUN TIME: 0 days 0 hours 4 minutes 10 seconds 552 msec
