                         Program Version 4.2.0 -  RELEASE  -
|  1> #
|  2> # MOR34_pr35 ri-DSD-BLYP/2013-D3BJ/Def2-TZVPPD
|  3> #
|  4> ! rijk ri-dsd-blyp/2013 d3bj def2-tzvppd def2/jk def2-tzvppd/c grid4 nofinalgrid
|  5>
|  6> *xyz 0 1
|  7> Ru       0.569145    0.005836    0.165179
|  8> Se      -1.577691    0.219302   -1.256403
|  9> P        2.150844   -0.339975    1.751510
| 10> P        1.960774    0.268717   -1.689611
| 11> P        0.209152    2.312844    0.427199
| 12> P        0.201777   -2.273734   -0.170115
| 13> C       -3.165297    0.017396   -0.190307
| 14> C       -4.394132    0.053132   -0.874133
| 15> C       -5.595730   -0.078160   -0.183035
| 16> C       -5.602894   -0.248979    1.204636
| 17> C       -4.386994   -0.285335    1.887322
| 18> C       -3.179536   -0.153593    1.200055
| 19> C        2.835775    1.024261    2.797241
| 20> C        3.776990   -1.134294    1.350685
| 21> C        1.582544   -1.410719    3.147602
| 22> C        1.189258    0.640725   -3.324662
| 23> C        3.233820    1.610023   -1.608962
| 24> C        3.088037   -1.102636   -2.218553
| 25> C       -1.285561    2.723129    1.411363
| 26> C        1.411100    3.483245    1.220886
| 27> C       -0.106458    3.317190   -1.091179
| 28> C       -1.203048   -2.960414    0.792609
| 29> C        1.495583   -3.557062    0.180127
| 30> C       -0.249251   -2.863510   -1.860160
| 31> H       -0.380046   -0.139952    1.501494
| 32> H       -4.399385    0.184833   -1.953205
| 33> H       -6.533440   -0.047821   -0.732848
| 34> H       -6.541373   -0.352173    1.741881
| 35> H       -4.372710   -0.417664    2.966984
| 36> H       -2.231572   -0.183831    1.730627
| 37> H        2.021868    1.525326    3.326216
| 38> H        3.360848    1.757391    2.181578
| 39> H        3.533951    0.611895    3.534364
| 40> H        4.357450   -0.458164    0.715432
| 41> H        3.629968   -2.070962    0.811827
| 42> H        4.349762   -1.333108    2.263576
| 43> H        0.778593   -0.879257    3.663997
| 44> H        2.395525   -1.623101    3.851423
| 45> H        1.170731   -2.350778    2.777081
| 46> H        1.942377    0.770617   -4.110078
| 47> H        0.580686    1.544719   -3.247034
| 48> H        0.519142   -0.181425   -3.592607
| 49> H        3.848415    1.640003   -2.515852
| 50> H        3.881269    1.436754   -0.744032
| 51> H        2.749674    2.580347   -1.477575
| 52> H        3.680607   -0.803573   -3.090502
| 53> H        2.506614   -1.989838   -2.479223
| 54> H        3.765021   -1.364235   -1.402566
| 55> H       -1.422862    3.807855    1.484184
| 56> H       -1.180491    2.295670    2.412101
| 57> H       -2.158099    2.270920    0.935224
| 58> H        1.060677    4.511234    1.077988
| 59> H        2.402787    3.383240    0.772277
| 60> H        1.491749    3.290644    2.291344
| 61> H       -0.430215    4.323980   -0.805953
| 62> H       -0.883917    2.832935   -1.685612
| 63> H        0.806667    3.401312   -1.686904
| 64> H       -1.338643   -4.028887    0.591012
| 65> H       -2.108817   -2.414477    0.518490
| 66> H       -1.024200   -2.804556    1.859563
| 67> H        1.083825   -4.556345    0.001539
| 68> H        1.848365   -3.505467    1.212021
| 69> H        2.350340   -3.408454   -0.485526
| 70> H       -0.446095   -3.940916   -1.837012
| 71> H        0.566038   -2.668527   -2.561627
| 72> H       -1.135395   -2.323383   -2.198214
| 73> *
| 74>
| 75> %maxcore 5000
| 76>
| 77> %pal
| 78> nprocs = 24
| 79> end
| 80>
| 81>
| 82>                          ****END OF INPUT****

CARTESIAN COORDINATES (ANGSTROEM)
---------------------------------
  Ru     0.569145    0.005836    0.165179
  Se    -1.577691    0.219302   -1.256403
  P      2.150844   -0.339975    1.751510
  P      1.960774    0.268717   -1.689611
  P      0.209152    2.312844    0.427199
  P      0.201777   -2.273734   -0.170115
  C     -3.165297    0.017396   -0.190307
  C     -4.394132    0.053132   -0.874133
  C     -5.595730   -0.078160   -0.183035
  C     -5.602894   -0.248979    1.204636
  C     -4.386994   -0.285335    1.887322
  C     -3.179536   -0.153593    1.200055
  C      2.835775    1.024261    2.797241
  C      3.776990   -1.134294    1.350685
  C      1.582544   -1.410719    3.147602
  C      1.189258    0.640725   -3.324662
  C      3.233820    1.610023   -1.608962
  C      3.088037   -1.102636   -2.218553
  C     -1.285561    2.723129    1.411363
  C      1.411100    3.483245    1.220886
  C     -0.106458    3.317190   -1.091179
  C     -1.203048   -2.960414    0.792609
  C      1.495583   -3.557062    0.180127
  C     -0.249251   -2.863510   -1.860160
  H     -0.380046   -0.139952    1.501494
  H     -4.399385    0.184833   -1.953205
  H     -6.533440   -0.047821   -0.732848
  H     -6.541373   -0.352173    1.741881
  H     -4.372710   -0.417664    2.966984
  H     -2.231572   -0.183831    1.730627
  H      2.021868    1.525326    3.326216
  H      3.360848    1.757391    2.181578
  H      3.533951    0.611895    3.534364
  H      4.357450   -0.458164    0.715432
  H      3.629968   -2.070962    0.811827
  H      4.349762   -1.333108    2.263576
  H      0.778593   -0.879257    3.663997
  H      2.395525   -1.623101    3.851423
  H      1.170731   -2.350778    2.777081
  H      1.942377    0.770617   -4.110078
  H      0.580686    1.544719   -3.247034
  H      0.519142   -0.181425   -3.592607
  H      3.848415    1.640003   -2.515852
  H      3.881269    1.436754   -0.744032
  H      2.749674    2.580347   -1.477575
  H      3.680607   -0.803573   -3.090502
  H      2.506614   -1.989838   -2.479223
  H      3.765021   -1.364235   -1.402566
  H     -1.422862    3.807855    1.484184
  H     -1.180491    2.295670    2.412101
  H     -2.158099    2.270920    0.935224
  H      1.060677    4.511234    1.077988
  H      2.402787    3.383240    0.772277
  H      1.491749    3.290644    2.291344
  H     -0.430215    4.323980   -0.805953
  H     -0.883917    2.832935   -1.685612
  H      0.806667    3.401312   -1.686904
  H     -1.338643   -4.028887    0.591012
  H     -2.108817   -2.414477    0.518490
  H     -1.024200   -2.804556    1.859563
  H      1.083825   -4.556345    0.001539
  H      1.848365   -3.505467    1.212021
  H      2.350340   -3.408454   -0.485526
  H     -0.446095   -3.940916   -1.837012
  H      0.566038   -2.668527   -2.561627
  H     -1.135395   -2.323383   -2.198214

 Total Charge           Charge          ....    0
 Multiplicity           Mult            ....    1
 Number of Electrons    NEL             ....  260
 Basis Dimension        Dim             .... 1685

ORBITAL ENERGIES
----------------

  NO   OCC          E(Eh)            E(eV)
   0   2.0000    -458.264823    -12470.0198
   1   2.0000     -78.928639     -2147.7575
   2   2.0000     -78.923004     -2147.6041
   3   2.0000     -78.918370     -2147.4780
   4   2.0000     -78.915693     -2147.4052
   5   2.0000     -59.632932     -1622.6946
   6   2.0000     -53.396844     -1453.0020
   7   2.0000     -53.395559     -1452.9670
   8   2.0000     -53.394986     -1452.9514
   9   2.0000     -10.852836      -295.3207
  10   2.0000     -10.852544      -295.3127
  11   2.0000     -10.851859      -295.2941
  12   2.0000     -10.851012      -295.2710
  13   2.0000     -10.849941      -295.2419
  14   2.0000     -10.846817      -295.1569
  15   2.0000     -10.846198      -295.1401
  16   2.0000     -10.842809      -295.0478
  17   2.0000     -10.841511      -295.0125
  18   2.0000     -10.833651      -294.7986
  19   2.0000     -10.833305      -294.7892
  20   2.0000     -10.833068      -294.7828
  21   2.0000     -10.832893      -294.7780
  22   2.0000     -10.831777      -294.7476
  23   2.0000     -10.829142      -294.6759
  24   2.0000     -10.828789      -294.6663
  25   2.0000     -10.827365      -294.6276
  26   2.0000     -10.821692      -294.4732
  27   2.0000      -8.427660      -229.3283
  28   2.0000      -7.162179      -194.8928
  29   2.0000      -7.157565      -194.7672
  30   2.0000      -7.152856      -194.6391
  31   2.0000      -7.150184      -194.5664
  32   2.0000      -6.238731      -169.7645
  33   2.0000      -6.233476      -169.6215
  34   2.0000      -6.231208      -169.5598
  35   2.0000      -5.154356      -140.2572
  36   2.0000      -5.154207      -140.2531
  37   2.0000      -5.152013      -140.1934
  38   2.0000      -5.149570      -140.1269
  39   2.0000      -5.149441      -140.1234
  40   2.0000      -5.147306      -140.0653
  41   2.0000      -5.145050      -140.0039
  42   2.0000      -5.144638      -139.9927
  43   2.0000      -5.142677      -139.9394
  44   2.0000      -5.142350      -139.9305
  45   2.0000      -5.141953      -139.9197
  46   2.0000      -5.139973      -139.8658
  47   2.0000      -3.312070       -90.1260
  48   2.0000      -2.358976       -64.1910
  49   2.0000      -2.356866       -64.1336
  50   2.0000      -2.354360       -64.0654
  51   2.0000      -2.348848       -63.9154
  52   2.0000      -2.348669       -63.9105
  53   2.0000      -2.058807       -56.0230
  54   2.0000      -2.057389       -55.9844
  55   2.0000      -2.054371       -55.9023
  56   2.0000      -1.017989       -27.7009
  57   2.0000      -0.947510       -25.7830
  58   2.0000      -0.939930       -25.5768
  59   2.0000      -0.932414       -25.3723
  60   2.0000      -0.930084       -25.3089
  61   2.0000      -0.899253       -24.4699
  62   2.0000      -0.891657       -24.2632
  63   2.0000      -0.862408       -23.4673
  64   2.0000      -0.858869       -23.3710
  65   2.0000      -0.857572       -23.3357
  66   2.0000      -0.853159       -23.2156
  67   2.0000      -0.848926       -23.1005
  68   2.0000      -0.843222       -22.9452
  69   2.0000      -0.841497       -22.8983
  70   2.0000      -0.840226       -22.8637
  71   2.0000      -0.763749       -20.7827
  72   2.0000      -0.719999       -19.5922
  73   2.0000      -0.687802       -18.7160
  74   2.0000      -0.676706       -18.4141
  75   2.0000      -0.665271       -18.1029
  76   2.0000      -0.656858       -17.8740
  77   2.0000      -0.653089       -17.7714
  78   2.0000      -0.599930       -16.3249
  79   2.0000      -0.574946       -15.6451
  80   2.0000      -0.562161       -15.2972
  81   2.0000      -0.558304       -15.1922
  82   2.0000      -0.552390       -15.0313
  83   2.0000      -0.550162       -14.9707
  84   2.0000      -0.543156       -14.7800
  85   2.0000      -0.541619       -14.7382
  86   2.0000      -0.536127       -14.5888
  87   2.0000      -0.535407       -14.5692
  88   2.0000      -0.532103       -14.4793
  89   2.0000      -0.528908       -14.3923
  90   2.0000      -0.525052       -14.2874
  91   2.0000      -0.523775       -14.2527
  92   2.0000      -0.516711       -14.0604
  93   2.0000      -0.508904       -13.8480
  94   2.0000      -0.506639       -13.7863
  95   2.0000      -0.505224       -13.7478
  96   2.0000      -0.502709       -13.6794
  97   2.0000      -0.500945       -13.6314
  98   2.0000      -0.494053       -13.4439
  99   2.0000      -0.492857       -13.4113
 100   2.0000      -0.490966       -13.3599
 101   2.0000      -0.490631       -13.3508
 102   2.0000      -0.488815       -13.3013
 103   2.0000      -0.485568       -13.2130
 104   2.0000      -0.479787       -13.0557
 105   2.0000      -0.477788       -13.0013
 106   2.0000      -0.463334       -12.6080
 107   2.0000      -0.436379       -11.8745
 108   2.0000      -0.433053       -11.7840
 109   2.0000      -0.429887       -11.6978
 110   2.0000      -0.428869       -11.6701
 111   2.0000      -0.422418       -11.4946
 112   2.0000      -0.418615       -11.3911
 113   2.0000      -0.414913       -11.2904
 114   2.0000      -0.412224       -11.2172
 115   2.0000      -0.409300       -11.1376
 116   2.0000      -0.408218       -11.1082
 117   2.0000      -0.404207       -10.9990
 118   2.0000      -0.385089       -10.4788
 119   2.0000      -0.380960       -10.3665
 120   2.0000      -0.359615        -9.7856
 121   2.0000      -0.340729        -9.2717
 122   2.0000      -0.307179        -8.3588
 123   2.0000      -0.302291        -8.2257
 124   2.0000      -0.297013        -8.0821
 125   2.0000      -0.292907        -7.9704
 126   2.0000      -0.286073        -7.7844
 127   2.0000      -0.282664        -7.6917
 128   2.0000      -0.255628        -6.9560
 129   2.0000      -0.209825        -5.7096
 130   0.0000       0.027502         0.7484
 131   0.0000       0.042779         1.1641
 132   0.0000       0.044110         1.2003
 133   0.0000       0.047869         1.3026
 134   0.0000       0.057575         1.5667

MULLIKEN ATOMIC CHARGES
-----------------------
   0 Ru:   -0.587508
   1 Se:   -0.406050
   2 P :    1.556279
   3 P :    1.200401
   4 P :    1.378058
   5 P :    1.264701
   6 C :    0.411685
   7 C :   -0.710540
   8 C :   -0.144734
   9 C :    0.008025
  10 C :   -0.684120
  11 C :    1.464639
  12 C :   -0.686904
  13 C :   -0.543044
  14 C :   -0.636716
  15 C :   -0.687201
  16 C :   -0.482602
  17 C :   -0.407655
  18 C :   -0.322114
  19 C :   -0.523084
  20 C :   -0.541495
  21 C :   -0.429467
  22 C :   -0.526473
  23 C :   -0.393658
  24 H :   -0.206631
  25 H :   -0.091808
  26 H :   -0.094552
  27 H :   -0.079882
  28 H :   -0.091403
  29 H :   -0.422481
  30 H :    0.044060
  31 H :    0.095213
  32 H :    0.129998
  33 H :    0.068350
  34 H :    0.051038
  35 H :    0.132796
  36 H :    0.028885
  37 H :    0.120247
  38 H :    0.030509
  39 H :    0.149703
  40 H :    0.060889
  41 H :    0.057163
  42 H :    0.091603
  43 H :    0.053159
  44 H :    0.039599
  45 H :    0.107191
  46 H :    0.015752
  47 H :    0.036962
  48 H :    0.148365
  49 H :   -0.023505
  50 H :   -0.051494
  51 H :    0.138365
  52 H :    0.032940
  53 H :    0.057991
  54 H :    0.128400
  55 H :    0.017034
  56 H :    0.073469
  57 H :    0.142401
  58 H :   -0.003843
  59 H :   -0.006618
  60 H :    0.110313
  61 H :    0.079820
  62 H :    0.040872
  63 H :    0.135058
  64 H :    0.063706
  65 H :    0.019943
Sum of atomic charges:    0.0000000

LOEWDIN ATOMIC CHARGES
----------------------
   0 Ru:   -0.132122
   1 Se:    0.653888
   2 P :    0.794282
   3 P :    0.805168
   4 P :    0.798862
   5 P :    0.795310
   6 C :   -0.582023
   7 C :   -0.066044
   8 C :   -0.004197
   9 C :   -0.008648
  10 C :    0.004807
  11 C :   -0.091744
  12 C :   -0.027406
  13 C :   -0.020503
  14 C :   -0.028526
  15 C :   -0.032953
  16 C :   -0.019397
  17 C :   -0.015582
  18 C :   -0.020448
  19 C :   -0.026618
  20 C :   -0.051152
  21 C :   -0.007530
  22 C :   -0.022058
  23 C :   -0.042319
  24 H :   -0.125116
  25 H :   -0.017558
  26 H :   -0.005706
  27 H :   -0.011198
  28 H :   -0.003860
  29 H :   -0.068156
  30 H :   -0.061693
  31 H :   -0.065935
  32 H :   -0.049806
  33 H :   -0.068189
  34 H :   -0.087446
  35 H :   -0.049577
  36 H :   -0.054286
  37 H :   -0.049646
  38 H :   -0.090850
  39 H :   -0.048906
  40 H :   -0.075756
  41 H :   -0.067070
  42 H :   -0.049020
  43 H :   -0.067108
  44 H :   -0.085907
  45 H :   -0.048474
  46 H :   -0.082090
  47 H :   -0.076644
  48 H :   -0.048060
  49 H :   -0.052411
  50 H :   -0.078170
  51 H :   -0.051692
  52 H :   -0.070859
  53 H :   -0.076778
  54 H :   -0.051421
  55 H :   -0.116490
  56 H :   -0.077214
  57 H :   -0.047274
  58 H :   -0.073338
  59 H :   -0.058529
  60 H :   -0.050086
  61 H :   -0.080569
  62 H :   -0.070773
  63 H :   -0.049827
  64 H :   -0.079668
  65 H :   -0.109892

  Mayer bond orders larger than 0.100000
B(  0-Ru,  1-Se) :   0.2281 B(  0-Ru,  2-P ) :   0.3615 B(  0-Ru,  4-P ) :   0.3164
B(  0-Ru,  5-P ) :   0.3667 B(  0-Ru, 12-C ) :   0.1096 B(  0-Ru, 14-C ) :   0.1376
B(  0-Ru, 16-C ) :   0.1428 B(  0-Ru, 18-C ) :   0.1238 B(  0-Ru, 21-C ) :   0.1123
B(  0-Ru, 24-H ) :   0.6608 B(  0-Ru, 29-H ) :   0.4221 B(  1-Se,  3-P ) :  -0.1816
B(  1-Se,  4-P ) :   0.2271 B(  1-Se,  5-P ) :   0.1921 B(  1-Se,  6-C ) :   0.7466
B(  1-Se, 11-C ) :   0.1675 B(  1-Se, 29-H ) :   0.2599 B(  2-P ,  3-P ) :   0.5040
B(  2-P ,  5-P ) :   0.2254 B(  2-P , 12-C ) :   0.4670 B(  2-P , 13-C ) :   0.4485
B(  2-P , 14-C ) :   0.5849 B(  2-P , 24-H ) :  -0.2453 B(  3-P ,  4-P ) :   0.1164
B(  3-P ,  5-P ) :   0.1281 B(  3-P , 15-C ) :   0.5068 B(  3-P , 16-C ) :   0.4978
B(  3-P , 17-C ) :   0.3944 B(  3-P , 24-H ) :   0.1837 B(  4-P ,  5-P ) :   0.2502
B(  4-P , 18-C ) :   0.5127 B(  4-P , 19-C ) :   0.5351 B(  4-P , 20-C ) :   0.5704
B(  4-P , 24-H ) :  -0.1184 B(  5-P , 21-C ) :   0.6288 B(  5-P , 22-C ) :   0.4719
B(  5-P , 23-C ) :   0.4800 B(  5-P , 29-H ) :  -0.1294 B(  6-C ,  7-C ) :   1.0070
B(  6-C , 10-C ) :   0.1566 B(  6-C , 11-C ) :   1.1673 B(  6-C , 25-H ) :  -0.1519
B(  6-C , 29-H ) :  -0.1895 B(  7-C ,  8-C ) :   1.2376 B(  7-C , 10-C ) :   0.1394
B(  7-C , 11-C ) :  -0.6060 B(  7-C , 25-H ) :   1.1383 B(  7-C , 26-H ) :  -0.1270
B(  8-C ,  9-C ) :   1.1365 B(  8-C , 10-C ) :   0.1176 B(  8-C , 11-C ) :  -0.2036
B(  8-C , 25-H ) :  -0.1358 B(  8-C , 26-H ) :   1.1696 B(  8-C , 27-H ) :  -0.1345
B(  9-C , 10-C ) :   1.2098 B(  9-C , 11-C ) :  -0.1626 B(  9-C , 26-H ) :  -0.1275
B(  9-C , 27-H ) :   1.1629 B(  9-C , 28-H ) :  -0.1484 B( 10-C , 11-C ) :   0.4170
B( 10-C , 27-H ) :  -0.1244 B( 10-C , 28-H ) :   1.2265 B( 10-C , 29-H ) :  -0.1062
B( 11-C , 24-H ) :  -0.1291 B( 11-C , 28-H ) :  -0.1765 B( 11-C , 29-H ) :   0.7095
B( 12-C , 13-C ) :   0.1058 B( 12-C , 14-C ) :   0.1808 B( 12-C , 30-H ) :   1.0385
B( 12-C , 31-H ) :   0.9981 B( 12-C , 32-H ) :   0.9994 B( 13-C , 14-C ) :   0.1288
B( 13-C , 33-H ) :   0.9942 B( 13-C , 34-H ) :   1.0382 B( 13-C , 35-H ) :   1.0244
B( 14-C , 36-H ) :   1.0430 B( 14-C , 37-H ) :   1.0267 B( 14-C , 38-H ) :   1.0040
B( 15-C , 16-C ) :   0.1212 B( 15-C , 17-C ) :   0.1274 B( 15-C , 39-H ) :   1.0101
B( 15-C , 40-H ) :   1.0333 B( 15-C , 41-H ) :   1.0261 B( 16-C , 17-C ) :   0.1687
B( 16-C , 42-H ) :   1.0398 B( 16-C , 43-H ) :   1.0033 B( 16-C , 44-H ) :   1.0012
B( 17-C , 45-H ) :   1.0100 B( 17-C , 46-H ) :   0.9857 B( 17-C , 47-H ) :   1.0174
B( 18-C , 19-C ) :   0.1264 B( 18-C , 20-C ) :   0.1318 B( 18-C , 48-H ) :   0.9798
B( 18-C , 49-H ) :   1.0019 B( 18-C , 50-H ) :   0.9970 B( 19-C , 20-C ) :   0.1521
B( 19-C , 51-H ) :   1.0113 B( 19-C , 52-H ) :   1.0439 B( 19-C , 53-H ) :   0.9942
B( 20-C , 54-H ) :   1.0184 B( 20-C , 55-H ) :   1.0266 B( 20-C , 56-H ) :   1.0136
B( 21-C , 22-C ) :   0.1037 B( 21-C , 23-C ) :   0.1212 B( 21-C , 57-H ) :   0.9694
B( 21-C , 58-H ) :   1.0282 B( 21-C , 59-H ) :   1.0007 B( 22-C , 23-C ) :   0.1540
B( 22-C , 60-H ) :   1.0269 B( 22-C , 61-H ) :   1.0094 B( 22-C , 62-H ) :   1.0169
B( 23-C , 63-H ) :   1.0151 B( 23-C , 64-H ) :   0.9851 B( 23-C , 65-H ) :   0.9910
B( 24-H , 29-H ) :   0.1310

MP2 TOTAL ENERGY:    -4571.036378485 Eh
Dispersion correction           -0.113675870
FINAL SINGLE POINT ENERGY     -4571.150054354481

DIPOLE MOMENT
-------------
                                X             Y             Z
Electronic contribution:      7.03810       3.75169      -7.24745
Nuclear contribution   :     -4.37445      -3.89216       7.69405
                        -----------------------------------------
Total Dipole Moment    :      2.66365      -0.14047       0.44660
                        -----------------------------------------
Magnitude (a.u.)       :      2.70448
Magnitude (Debye)      :      6.87424

Rotational constants in cm-1:     0.006518     0.004113     0.003881
Rotational constants in MHz :   195.407297   123.317842   116.359449

                             ****ORCA TERMINATED NORMALLY****
TOTAL RUN TIME: 0 days 0 hours 14 minutes 18 seconds 538 msec
