                         Program Version 4.2.0 -  RELEASE  -
|  1> #
|  2> # MOR33_pr28 ri-DSD-BLYP/2013-D3BJ/Def2-TZVPPD
|  3> #
|  4> ! rijk ri-dsd-blyp/2013 d3bj def2-tzvppd def2/jk def2-tzvppd/c grid4 nofinalgrid
|  5>
|  6> *xyz 0 1
|  7> C        1.962238    1.228976    0.498763
|  8> C        1.599117    0.285883    1.541183
|  9> C        2.190996   -0.926462   -0.368778
| 10> C        2.300550    0.493131   -0.671789
| 11> C        2.081248    2.713946    0.664976
| 12> H        1.434728    3.080045    1.466376
| 13> H        1.821015    3.245065   -0.254703
| 14> H        3.112287    2.986784    0.927647
| 15> C        2.741378    1.051608   -1.988266
| 16> H        2.535990    2.123448   -2.051886
| 17> H        2.213045    0.558789   -2.809947
| 18> H        3.820515    0.902993   -2.128525
| 19> C        2.527241   -2.035347   -1.317221
| 20> H        3.613873   -2.134320   -1.446849
| 21> H        2.080344   -1.846887   -2.298459
| 22> H        2.144835   -2.993343   -0.953257
| 23> C        1.716574   -2.315630    1.788054
| 24> H        2.711935   -2.577282    2.171299
| 25> H        1.368788   -3.152284    1.175589
| 26> H        1.050088   -2.217418    2.648594
| 27> C        1.340513    0.619038    2.979845
| 28> H        2.276059    0.647386    3.557074
| 29> H        0.683714   -0.121696    3.445256
| 30> H        0.861589    1.596880    3.080055
| 31> Ru       0.207249   -0.005545   -0.119227
| 32> Cl      -0.429544   -0.245973   -2.480800
| 33> P       -1.456891    1.528216    0.068580
| 34> C       -1.650760    2.737817   -1.304822
| 35> H       -1.703179    2.179367   -2.242601
| 36> H       -0.763254    3.377318   -1.338338
| 37> H       -2.542801    3.360896   -1.175052
| 38> C       -1.549065    2.651656    1.528190
| 39> H       -2.472379    3.241595    1.506577
| 40> H       -0.697323    3.336564    1.527717
| 41> H       -1.520496    2.059136    2.446687
| 42> C       -3.144680    0.720288    0.161598
| 43> H       -3.432756    0.709722    1.219807
| 44> H       -3.887248    1.321720   -0.374189
| 45> C        1.787636   -1.042026    1.001372
| 46> P       -1.484414   -1.469966    0.216463
| 47> H       -2.382409   -3.625079   -0.568542
| 48> H       -0.624918   -3.689033   -0.270965
| 49> H       -1.236340   -2.863867   -1.723131
| 50> C       -3.065590   -0.710530   -0.380679
| 51> C       -1.439182   -3.076884   -0.670420
| 52> C       -1.931261   -2.000447    1.926464
| 53> H       -2.988264   -0.701756   -1.472521
| 54> H       -3.935017   -1.311110   -0.088429
| 55> H       -1.104361   -2.563780    2.366010
| 56> H       -2.827619   -2.630913    1.925421
| 57> H       -2.109292   -1.117280    2.546403
| 58> *
| 59>
| 60> %maxcore 5000
| 61>
| 62> %pal
| 63> nprocs = 24
| 64> end
| 65>
| 66>
| 67>                          ****END OF INPUT****

CARTESIAN COORDINATES (ANGSTROEM)
---------------------------------
  C      1.962238    1.228976    0.498763
  C      1.599117    0.285883    1.541183
  C      2.190996   -0.926462   -0.368778
  C      2.300550    0.493131   -0.671789
  C      2.081248    2.713946    0.664976
  H      1.434728    3.080045    1.466376
  H      1.821015    3.245065   -0.254703
  H      3.112287    2.986784    0.927647
  C      2.741378    1.051608   -1.988266
  H      2.535990    2.123448   -2.051886
  H      2.213045    0.558789   -2.809947
  H      3.820515    0.902993   -2.128525
  C      2.527241   -2.035347   -1.317221
  H      3.613873   -2.134320   -1.446849
  H      2.080344   -1.846887   -2.298459
  H      2.144835   -2.993343   -0.953257
  C      1.716574   -2.315630    1.788054
  H      2.711935   -2.577282    2.171299
  H      1.368788   -3.152284    1.175589
  H      1.050088   -2.217418    2.648594
  C      1.340513    0.619038    2.979845
  H      2.276059    0.647386    3.557074
  H      0.683714   -0.121696    3.445256
  H      0.861589    1.596880    3.080055
  Ru     0.207249   -0.005545   -0.119227
  Cl    -0.429544   -0.245973   -2.480800
  P     -1.456891    1.528216    0.068580
  C     -1.650760    2.737817   -1.304822
  H     -1.703179    2.179367   -2.242601
  H     -0.763254    3.377318   -1.338338
  H     -2.542801    3.360896   -1.175052
  C     -1.549065    2.651656    1.528190
  H     -2.472379    3.241595    1.506577
  H     -0.697323    3.336564    1.527717
  H     -1.520496    2.059136    2.446687
  C     -3.144680    0.720288    0.161598
  H     -3.432756    0.709722    1.219807
  H     -3.887248    1.321720   -0.374189
  C      1.787636   -1.042026    1.001372
  P     -1.484414   -1.469966    0.216463
  H     -2.382409   -3.625079   -0.568542
  H     -0.624918   -3.689033   -0.270965
  H     -1.236340   -2.863867   -1.723131
  C     -3.065590   -0.710530   -0.380679
  C     -1.439182   -3.076884   -0.670420
  C     -1.931261   -2.000447    1.926464
  H     -2.988264   -0.701756   -1.472521
  H     -3.935017   -1.311110   -0.088429
  H     -1.104361   -2.563780    2.366010
  H     -2.827619   -2.630913    1.925421
  H     -2.109292   -1.117280    2.546403

 Total Charge           Charge          ....    0
 Multiplicity           Mult            ....    1
 Number of Electrons    NEL             ....  190
 Basis Dimension        Dim             .... 1322

ORBITAL ENERGIES
----------------

  NO   OCC          E(Eh)            E(eV)
   0   2.0000    -103.534656     -2817.3212
   1   2.0000     -78.922080     -2147.5790
   2   2.0000     -78.920636     -2147.5397
   3   2.0000     -10.866255      -295.6858
   4   2.0000     -10.861638      -295.5602
   5   2.0000     -10.858864      -295.4847
   6   2.0000     -10.854850      -295.3755
   7   2.0000     -10.853411      -295.3363
   8   2.0000     -10.852496      -295.3114
   9   2.0000     -10.852294      -295.3059
  10   2.0000     -10.850966      -295.2698
  11   2.0000     -10.850905      -295.2681
  12   2.0000     -10.848646      -295.2067
  13   2.0000     -10.848550      -295.2040
  14   2.0000     -10.847069      -295.1638
  15   2.0000     -10.841113      -295.0017
  16   2.0000     -10.837955      -294.9157
  17   2.0000     -10.832411      -294.7649
  18   2.0000     -10.829647      -294.6897
  19   2.0000     -10.051109      -273.5046
  20   2.0000      -7.623534      -207.4469
  21   2.0000      -7.622025      -207.4058
  22   2.0000      -7.621954      -207.4039
  23   2.0000      -7.157274      -194.7593
  24   2.0000      -7.156220      -194.7306
  25   2.0000      -5.149343      -140.1208
  26   2.0000      -5.148991      -140.1112
  27   2.0000      -5.148211      -140.0900
  28   2.0000      -5.147973      -140.0835
  29   2.0000      -5.147200      -140.0624
  30   2.0000      -5.146130      -140.0333
  31   2.0000      -3.322521       -90.4104
  32   2.0000      -2.083206       -56.6869
  33   2.0000      -2.063229       -56.1433
  34   2.0000      -2.060742       -56.0756
  35   2.0000      -1.070988       -29.1431
  36   2.0000      -0.973750       -26.4971
  37   2.0000      -0.950936       -25.8763
  38   2.0000      -0.943458       -25.6728
  39   2.0000      -0.924365       -25.1533
  40   2.0000      -0.893313       -24.3083
  41   2.0000      -0.883263       -24.0348
  42   2.0000      -0.876020       -23.8377
  43   2.0000      -0.872620       -23.7452
  44   2.0000      -0.864396       -23.5214
  45   2.0000      -0.854374       -23.2487
  46   2.0000      -0.851366       -23.1668
  47   2.0000      -0.779117       -21.2009
  48   2.0000      -0.768121       -20.9016
  49   2.0000      -0.759505       -20.6672
  50   2.0000      -0.688021       -18.7220
  51   2.0000      -0.644839       -17.5470
  52   2.0000      -0.631991       -17.1973
  53   2.0000      -0.630524       -17.1574
  54   2.0000      -0.574578       -15.6351
  55   2.0000      -0.570086       -15.5128
  56   2.0000      -0.560478       -15.2514
  57   2.0000      -0.554364       -15.0850
  58   2.0000      -0.541557       -14.7365
  59   2.0000      -0.534594       -14.5470
  60   2.0000      -0.533848       -14.5267
  61   2.0000      -0.530927       -14.4473
  62   2.0000      -0.528387       -14.3781
  63   2.0000      -0.522416       -14.2157
  64   2.0000      -0.516235       -14.0475
  65   2.0000      -0.513125       -13.9629
  66   2.0000      -0.512054       -13.9337
  67   2.0000      -0.505939       -13.7673
  68   2.0000      -0.505020       -13.7423
  69   2.0000      -0.500295       -13.6137
  70   2.0000      -0.497098       -13.5267
  71   2.0000      -0.492091       -13.3905
  72   2.0000      -0.488297       -13.2872
  73   2.0000      -0.487611       -13.2686
  74   2.0000      -0.472789       -12.8652
  75   2.0000      -0.468553       -12.7500
  76   2.0000      -0.466319       -12.6892
  77   2.0000      -0.463897       -12.6233
  78   2.0000      -0.434200       -11.8152
  79   2.0000      -0.426784       -11.6134
  80   2.0000      -0.425558       -11.5800
  81   2.0000      -0.420929       -11.4540
  82   2.0000      -0.417755       -11.3677
  83   2.0000      -0.411202       -11.1894
  84   2.0000      -0.396316       -10.7843
  85   2.0000      -0.370320       -10.0769
  86   2.0000      -0.366398        -9.9702
  87   2.0000      -0.359219        -9.7748
  88   2.0000      -0.343041        -9.3346
  89   2.0000      -0.340848        -9.2749
  90   2.0000      -0.307966        -8.3802
  91   2.0000      -0.300100        -8.1661
  92   2.0000      -0.282128        -7.6771
  93   2.0000      -0.256201        -6.9716
  94   2.0000      -0.243275        -6.6199
  95   0.0000       0.033800         0.9197
  96   0.0000       0.043147         1.1741
  97   0.0000       0.049048         1.3347
  98   0.0000       0.052084         1.4173
  99   0.0000       0.063509         1.7282

MULLIKEN ATOMIC CHARGES
-----------------------
   0 C :    0.387574
   1 C :    0.873150
   2 C :    0.635004
   3 C :    0.737781
   4 C :   -0.501900
   5 H :    0.018809
   6 H :    0.072391
   7 H :    0.118635
   8 C :   -0.854979
   9 H :    0.087789
  10 H :    0.084142
  11 H :    0.120256
  12 C :   -0.909766
  13 H :    0.121113
  14 H :    0.088264
  15 H :    0.081540
  16 C :   -0.515968
  17 H :    0.119737
  18 H :    0.061892
  19 H :    0.031808
  20 C :   -0.825737
  21 H :    0.097549
  22 H :    0.072235
  23 H :    0.082165
  24 Ru:   -1.627536
  25 Cl:   -0.725141
  26 P :    1.487825
  27 C :   -0.758866
  28 H :    0.066388
  29 H :    0.081796
  30 H :    0.143231
  31 C :   -0.592280
  32 H :    0.117661
  33 H :    0.044105
  34 H :    0.030281
  35 C :   -0.389775
  36 H :    0.138481
  37 H :    0.175660
  38 C :    0.504924
  39 P :    1.413681
  40 H :    0.140878
  41 H :    0.097507
  42 H :    0.050877
  43 C :    0.033200
  44 C :   -0.680030
  45 C :   -0.639850
  46 H :    0.211667
  47 H :    0.130705
  48 H :    0.082225
  49 H :    0.126556
  50 H :    0.052349
Sum of atomic charges:    0.0000000

LOEWDIN ATOMIC CHARGES
----------------------
   0 C :   -0.239662
   1 C :   -0.262181
   2 C :   -0.259110
   3 C :   -0.254568
   4 C :    0.165804
   5 H :   -0.036772
   6 H :   -0.017081
   7 H :    0.004677
   8 C :    0.154682
   9 H :   -0.016821
  10 H :   -0.049297
  11 H :    0.000662
  12 C :    0.159513
  13 H :   -0.001796
  14 H :   -0.031025
  15 H :   -0.020070
  16 C :    0.164069
  17 H :    0.006209
  18 H :   -0.023169
  19 H :   -0.031435
  20 C :    0.159655
  21 H :    0.000782
  22 H :   -0.018971
  23 H :   -0.029511
  24 Ru:    0.457091
  25 Cl:   -0.040077
  26 P :    0.849482
  27 C :   -0.026829
  28 H :   -0.097790
  29 H :   -0.058484
  30 H :   -0.052717
  31 C :   -0.010738
  32 H :   -0.047632
  33 H :   -0.070914
  34 H :   -0.060297
  35 C :   -0.195699
  36 H :   -0.032302
  37 H :   -0.021020
  38 C :   -0.253533
  39 P :    0.822730
  40 H :   -0.049295
  41 H :   -0.063576
  42 H :   -0.084191
  43 C :   -0.224211
  44 C :   -0.011946
  45 C :    0.003929
  46 H :   -0.056045
  47 H :   -0.019891
  48 H :   -0.072808
  49 H :   -0.048896
  50 H :   -0.058927

  Mayer bond orders larger than 0.100000
B(  0-C ,  1-C ) :  -0.2122 B(  0-C ,  2-C ) :  -0.3738 B(  0-C ,  3-C ) :   0.5009
B(  0-C ,  4-C ) :   0.7197 B(  0-C ,  6-H ) :  -0.1152 B(  0-C ,  7-H ) :  -0.1254
B(  0-C ,  8-C ) :  -0.1692 B(  0-C , 12-C ) :   0.1277 B(  0-C , 24-Ru) :   0.9284
B(  0-C , 25-Cl) :   0.1035 B(  0-C , 38-C ) :   0.2050 B(  1-C ,  2-C ) :  -0.3060
B(  1-C ,  3-C ) :  -0.2941 B(  1-C ,  4-C ) :  -0.1562 B(  1-C , 20-C ) :   0.7953
B(  1-C , 22-H ) :  -0.1640 B(  1-C , 23-H ) :  -0.1402 B(  1-C , 24-Ru) :   0.2162
B(  1-C , 26-P ) :   0.2477 B(  1-C , 38-C ) :   0.1945 B(  2-C ,  3-C ) :   0.8514
B(  2-C ,  8-C ) :  -0.1512 B(  2-C , 12-C ) :   0.9656 B(  2-C , 14-H ) :  -0.1393
B(  2-C , 15-H ) :  -0.1014 B(  2-C , 25-Cl) :  -0.1954 B(  2-C , 38-C ) :   0.4887
B(  3-C ,  8-C ) :   0.9795 B(  3-C ,  9-H ) :  -0.1051 B(  3-C , 10-H ) :  -0.1129
B(  3-C , 12-C ) :  -0.2583 B(  3-C , 14-H ) :   0.1125 B(  3-C , 38-C ) :  -0.2515
B(  4-C ,  5-H ) :   1.0092 B(  4-C ,  6-H ) :   1.0124 B(  4-C ,  7-H ) :   0.9811
B(  4-C ,  8-C ) :   0.1096 B(  4-C , 20-C ) :   0.1010 B(  4-C , 24-Ru) :   0.1241
B(  8-C ,  9-H ) :   0.9742 B(  8-C , 10-H ) :   1.0121 B(  8-C , 11-H ) :   0.9672
B(  8-C , 12-C ) :   0.2273 B(  8-C , 24-Ru) :   0.2387 B(  8-C , 38-C ) :   0.1260
B( 12-C , 13-H ) :   0.9715 B( 12-C , 14-H ) :   1.0094 B( 12-C , 15-H ) :   0.9853
B( 12-C , 24-Ru) :   0.3402 B( 12-C , 38-C ) :  -0.1687 B( 16-C , 17-H ) :   0.9943
B( 16-C , 18-H ) :   1.0170 B( 16-C , 19-H ) :   1.0111 B( 16-C , 38-C ) :   0.6851
B( 17-H , 38-C ) :  -0.1253 B( 20-C , 21-H ) :   0.9854 B( 20-C , 22-H ) :   1.0505
B( 20-C , 23-H ) :   1.0265 B( 20-C , 24-Ru) :   0.1244 B( 20-C , 38-C ) :  -0.2505
B( 24-Ru, 25-Cl) :   0.7614 B( 24-Ru, 26-P ) :   0.8862 B( 24-Ru, 27-C ) :   0.1654
B( 24-Ru, 31-C ) :   0.1238 B( 24-Ru, 38-C ) :   1.1007 B( 24-Ru, 39-P ) :   0.9274
B( 24-Ru, 44-C ) :   0.1274 B( 24-Ru, 45-C ) :   0.1562 B( 25-Cl, 26-P ) :  -0.2373
B( 26-P , 27-C ) :   0.7344 B( 26-P , 31-C ) :   0.7461 B( 26-P , 35-C ) :   0.4558
B( 26-P , 39-P ) :  -0.3841 B( 26-P , 43-C ) :   0.1412 B( 27-C , 28-H ) :   1.0563
B( 27-C , 29-H ) :   1.0327 B( 27-C , 30-H ) :   1.0025 B( 27-C , 31-C ) :   0.1344
B( 27-C , 35-C ) :   0.1113 B( 31-C , 32-H ) :   1.0325 B( 31-C , 33-H ) :   0.9911
B( 31-C , 34-H ) :   1.0316 B( 31-C , 35-C ) :   0.1286 B( 35-C , 36-H ) :   0.9095
B( 35-C , 37-H ) :   0.9286 B( 35-C , 39-P ) :   0.5687 B( 35-C , 43-C ) :   0.9230
B( 39-P , 43-C ) :   0.1501 B( 39-P , 44-C ) :   0.7494 B( 39-P , 45-C ) :   0.6194
B( 40-H , 44-C ) :   0.9980 B( 41-H , 44-C ) :   1.0063 B( 42-H , 44-C ) :   1.0264
B( 43-C , 45-C ) :   0.1519 B( 43-C , 46-H ) :   0.9394 B( 43-C , 47-H ) :   0.9712
B( 44-C , 45-C ) :   0.1141 B( 45-C , 48-H ) :   1.0164 B( 45-C , 49-H ) :   1.0186
B( 45-C , 50-H ) :   1.0225

MP2 TOTAL ENERGY:    -1865.058432407 Eh
Dispersion correction           -0.081013563
FINAL SINGLE POINT ENERGY     -1865.139445969323

DIPOLE MOMENT
-------------
                                X             Y             Z
Electronic contribution:     11.91183      -1.41951     -17.56361
Nuclear contribution   :    -12.48154       1.60484      19.54441
                        -----------------------------------------
Total Dipole Moment    :     -0.56971       0.18533       1.98080
                        -----------------------------------------
Magnitude (a.u.)       :      2.06942
Magnitude (Debye)      :      5.26004

Rotational constants in cm-1:     0.010225     0.008868     0.007900
Rotational constants in MHz :   306.523373   265.843264   236.824033

                             ****ORCA TERMINATED NORMALLY****
TOTAL RUN TIME: 0 days 0 hours 5 minutes 39 seconds 548 msec
