                         Program Version 4.2.0 -  RELEASE  -
|  1> #
|  2> # MOR32_pr24 ri-DSD-BLYP/2013-D3BJ/Def2-TZVPPD
|  3> #
|  4> ! rijk ri-dsd-blyp/2013 d3bj def2-tzvppd def2/jk def2-tzvppd/c grid4 nofinalgrid
|  5>
|  6> *xyz 0 1
|  7> Ru      -0.035996    0.034860    0.082543
|  8> Cl      -0.046084    0.871757    2.345511
|  9> Cl      -0.082643   -0.251281   -2.306106
| 10> P       -2.405323    0.249423   -0.008266
| 11> P        2.300479    0.500232    0.027120
| 12> C        0.001116   -1.667940    0.791644
| 13> C       -3.255846   -0.779963   -1.294051
| 14> C       -2.848942   -2.261368   -1.266946
| 15> C       -3.398876   -2.981786   -2.504110
| 16> C       -4.922426   -2.832890   -2.605932
| 17> C       -5.334793   -1.354942   -2.599361
| 18> C       -4.783534   -0.625210   -1.364170
| 19> C       -3.221066    0.016621    1.646329
| 20> C       -3.348995   -1.470437    2.019056
| 21> C       -3.732199   -1.618671    3.497042
| 22> C       -5.044413   -0.882663    3.794982
| 23> C       -4.956693    0.590347    3.377119
| 24> C       -4.553785    0.742878    1.900810
| 25> C       -2.872230    1.986345   -0.490087
| 26> C       -2.163115    2.999849    0.426175
| 27> C       -2.589715    4.435693    0.098539
| 28> C       -2.349950    4.766466   -1.379652
| 29> C       -3.040574    3.746983   -2.291650
| 30> C       -2.600840    2.312116   -1.968413
| 31> C        2.519347    2.324736   -0.285054
| 32> C        1.604869    2.748196   -1.448818
| 33> C        1.787837    4.229913   -1.795185
| 34> C        1.561334    5.119211   -0.566690
| 35> C        2.462330    4.689729    0.595848
| 36> C        2.262837    3.208486    0.946936
| 37> C        3.214610   -0.313206   -1.376422
| 38> C        4.389580    0.450522   -2.011230
| 39> C        4.896121   -0.301604   -3.253406
| 40> C        5.288482   -1.748170   -2.927915
| 41> C        4.126972   -2.494426   -2.260597
| 42> C        3.645107   -1.745341   -1.012665
| 43> C        3.206831    0.238412    1.622743
| 44> C        2.994302   -1.140133    2.267303
| 45> C        3.594936   -1.157108    3.679284
| 46> C        5.082627   -0.782686    3.659574
| 47> C        5.298163    0.581884    2.993237
| 48> C        4.698188    0.613575    1.579104
| 49> H       -0.245656   -1.707965    1.865373
| 50> H       -2.819225   -0.371239   -2.215916
| 51> H       -3.230189   -2.748789   -0.362672
| 52> H       -1.760789   -2.330899   -1.243400
| 53> H       -3.119087   -4.041703   -2.470944
| 54> H       -2.927502   -2.553493   -3.399551
| 55> H       -5.392712   -3.340392   -1.750927
| 56> H       -5.296587   -3.324979   -3.511916
| 57> H       -6.427450   -1.261716   -2.630671
| 58> H       -4.945262   -0.866118   -3.503542
| 59> H       -5.070682    0.432191   -1.395447
| 60> H       -5.236742   -1.054322   -0.461167
| 61> H       -2.465479    0.451871    2.316543
| 62> H       -2.411508   -1.996876    1.813279
| 63> H       -4.125009   -1.938644    1.399459
| 64> H       -2.926471   -1.202123    4.116390
| 65> H       -3.823256   -2.680917    3.755333
| 66> H       -5.293202   -0.959591    4.860288
| 67> H       -5.861889   -1.367172    3.241196
| 68> H       -4.207428    1.098486    3.999822
| 69> H       -5.914909    1.094655    3.553006
| 70> H       -5.342762    0.329578    1.260298
| 71> H       -4.469330    1.807621    1.662130
| 72> H       -3.955800    2.066858   -0.323698
| 73> H       -1.077684    2.897469    0.293877
| 74> H       -2.349318    2.770143    1.480105
| 75> H       -2.046165    5.138450    0.741851
| 76> H       -3.658362    4.556218    0.328634
| 77> H       -1.270904    4.750356   -1.582448
| 78> H       -2.699864    5.781090   -1.605161
| 79> H       -2.825345    3.969116   -3.343828
| 80> H       -4.130332    3.826484   -2.165704
| 81> H       -3.133532    1.612819   -2.620313
| 82> H       -1.533844    2.182898   -2.184922
| 83> H        3.564591    2.468609   -0.591164
| 84> H        0.559611    2.573880   -1.151507
| 85> H        1.768176    2.115907   -2.327538
| 86> H        1.101675    4.508223   -2.604414
| 87> H        2.807583    4.386865   -2.175589
| 88> H        0.512712    5.037901   -0.250724
| 89> H        1.736211    6.171791   -0.819994
| 90> H        2.261906    5.305911    1.480565
| 91> H        3.514182    4.858260    0.321627
| 92> H        2.940688    2.936309    1.762041
| 93> H        1.245445    3.035312    1.316951
| 94> H        2.419927   -0.392863   -2.132832
| 95> H        5.207202    0.560125   -1.286983
| 96> H        4.083077    1.458683   -2.307696
| 97> H        5.746803    0.236218   -3.689837
| 98> H        4.098240   -0.306101   -4.009039
| 99> H        6.151913   -1.744575   -2.246714
|100> H        5.605693   -2.267991   -3.840003
|101> H        4.427884   -3.513940   -1.990674
|102> H        3.291617   -2.582711   -2.968594
|103> H        2.818395   -2.284007   -0.542766
|104> H        4.463720   -1.707727   -0.282365
|105> H        2.684072    0.951283    2.275528
|106> H        3.458828   -1.926866    1.663188
|107> H        1.922115   -1.347534    2.315317
|108> H        3.457296   -2.147990    4.129032
|109> H        3.045134   -0.441097    4.305380
|110> H        5.641141   -1.548069    3.101064
|111> H        5.488216   -0.773918    4.678504
|112> H        6.367389    0.823413    2.949565
|113> H        4.817581    1.361528    3.600921
|114> H        4.835883    1.606778    1.136342
|115> H        5.239149   -0.097590    0.942080
|116> C        0.306803   -2.996009    0.272535
|117> C        0.290801   -4.063965    1.196067
|118> C        0.566926   -5.366711    0.794024
|119> C        0.856009   -5.632515   -0.545967
|120> C        0.869202   -4.587501   -1.475634
|121> C        0.604387   -3.284314   -1.074849
|122> H        0.059565   -3.849918    2.236920
|123> H        0.554564   -6.174166    1.520844
|124> H        1.091723   -4.793479   -2.518979
|125> H        0.609684   -2.468023   -1.790274
|126> H        1.069141   -6.648981   -0.865385
|127> *
|128>
|129> %maxcore 5000
|130>
|131> %pal
|132> nprocs = 24
|133> end
|134>
|135>
|136>                          ****END OF INPUT****

CARTESIAN COORDINATES (ANGSTROEM)
---------------------------------
  Ru    -0.035996    0.034860    0.082543
  Cl    -0.046084    0.871757    2.345511
  Cl    -0.082643   -0.251281   -2.306106
  P     -2.405323    0.249423   -0.008266
  P      2.300479    0.500232    0.027120
  C      0.001116   -1.667940    0.791644
  C     -3.255846   -0.779963   -1.294051
  C     -2.848942   -2.261368   -1.266946
  C     -3.398876   -2.981786   -2.504110
  C     -4.922426   -2.832890   -2.605932
  C     -5.334793   -1.354942   -2.599361
  C     -4.783534   -0.625210   -1.364170
  C     -3.221066    0.016621    1.646329
  C     -3.348995   -1.470437    2.019056
  C     -3.732199   -1.618671    3.497042
  C     -5.044413   -0.882663    3.794982
  C     -4.956693    0.590347    3.377119
  C     -4.553785    0.742878    1.900810
  C     -2.872230    1.986345   -0.490087
  C     -2.163115    2.999849    0.426175
  C     -2.589715    4.435693    0.098539
  C     -2.349950    4.766466   -1.379652
  C     -3.040574    3.746983   -2.291650
  C     -2.600840    2.312116   -1.968413
  C      2.519347    2.324736   -0.285054
  C      1.604869    2.748196   -1.448818
  C      1.787837    4.229913   -1.795185
  C      1.561334    5.119211   -0.566690
  C      2.462330    4.689729    0.595848
  C      2.262837    3.208486    0.946936
  C      3.214610   -0.313206   -1.376422
  C      4.389580    0.450522   -2.011230
  C      4.896121   -0.301604   -3.253406
  C      5.288482   -1.748170   -2.927915
  C      4.126972   -2.494426   -2.260597
  C      3.645107   -1.745341   -1.012665
  C      3.206831    0.238412    1.622743
  C      2.994302   -1.140133    2.267303
  C      3.594936   -1.157108    3.679284
  C      5.082627   -0.782686    3.659574
  C      5.298163    0.581884    2.993237
  C      4.698188    0.613575    1.579104
  H     -0.245656   -1.707965    1.865373
  H     -2.819225   -0.371239   -2.215916
  H     -3.230189   -2.748789   -0.362672
  H     -1.760789   -2.330899   -1.243400
  H     -3.119087   -4.041703   -2.470944
  H     -2.927502   -2.553493   -3.399551
  H     -5.392712   -3.340392   -1.750927
  H     -5.296587   -3.324979   -3.511916
  H     -6.427450   -1.261716   -2.630671
  H     -4.945262   -0.866118   -3.503542
  H     -5.070682    0.432191   -1.395447
  H     -5.236742   -1.054322   -0.461167
  H     -2.465479    0.451871    2.316543
  H     -2.411508   -1.996876    1.813279
  H     -4.125009   -1.938644    1.399459
  H     -2.926471   -1.202123    4.116390
  H     -3.823256   -2.680917    3.755333
  H     -5.293202   -0.959591    4.860288
  H     -5.861889   -1.367172    3.241196
  H     -4.207428    1.098486    3.999822
  H     -5.914909    1.094655    3.553006
  H     -5.342762    0.329578    1.260298
  H     -4.469330    1.807621    1.662130
  H     -3.955800    2.066858   -0.323698
  H     -1.077684    2.897469    0.293877
  H     -2.349318    2.770143    1.480105
  H     -2.046165    5.138450    0.741851
  H     -3.658362    4.556218    0.328634
  H     -1.270904    4.750356   -1.582448
  H     -2.699864    5.781090   -1.605161
  H     -2.825345    3.969116   -3.343828
  H     -4.130332    3.826484   -2.165704
  H     -3.133532    1.612819   -2.620313
  H     -1.533844    2.182898   -2.184922
  H      3.564591    2.468609   -0.591164
  H      0.559611    2.573880   -1.151507
  H      1.768176    2.115907   -2.327538
  H      1.101675    4.508223   -2.604414
  H      2.807583    4.386865   -2.175589
  H      0.512712    5.037901   -0.250724
  H      1.736211    6.171791   -0.819994
  H      2.261906    5.305911    1.480565
  H      3.514182    4.858260    0.321627
  H      2.940688    2.936309    1.762041
  H      1.245445    3.035312    1.316951
  H      2.419927   -0.392863   -2.132832
  H      5.207202    0.560125   -1.286983
  H      4.083077    1.458683   -2.307696
  H      5.746803    0.236218   -3.689837
  H      4.098240   -0.306101   -4.009039
  H      6.151913   -1.744575   -2.246714
  H      5.605693   -2.267991   -3.840003
  H      4.427884   -3.513940   -1.990674
  H      3.291617   -2.582711   -2.968594
  H      2.818395   -2.284007   -0.542766
  H      4.463720   -1.707727   -0.282365
  H      2.684072    0.951283    2.275528
  H      3.458828   -1.926866    1.663188
  H      1.922115   -1.347534    2.315317
  H      3.457296   -2.147990    4.129032
  H      3.045134   -0.441097    4.305380
  H      5.641141   -1.548069    3.101064
  H      5.488216   -0.773918    4.678504
  H      6.367389    0.823413    2.949565
  H      4.817581    1.361528    3.600921
  H      4.835883    1.606778    1.136342
  H      5.239149   -0.097590    0.942080
  C      0.306803   -2.996009    0.272535
  C      0.290801   -4.063965    1.196067
  C      0.566926   -5.366711    0.794024
  C      0.856009   -5.632515   -0.545967
  C      0.869202   -4.587501   -1.475634
  C      0.604387   -3.284314   -1.074849
  H      0.059565   -3.849918    2.236920
  H      0.554564   -6.174166    1.520844
  H      1.091723   -4.793479   -2.518979
  H      0.609684   -2.468023   -1.790274
  H      1.069141   -6.648981   -0.865385

 Total Charge           Charge          ....    0
 Multiplicity           Mult            ....    1
 Number of Electrons    NEL             ....  410
 Basis Dimension        Dim             .... 3069

ORBITAL ENERGIES
----------------

  NO   OCC          E(Eh)            E(eV)
   0   2.0000    -103.551397     -2817.7768
   1   2.0000    -103.544987     -2817.6023
   2   2.0000     -78.914313     -2147.3676
   3   2.0000     -78.913933     -2147.3573
   4   2.0000     -10.892274      -296.3938
   5   2.0000     -10.875570      -295.9393
   6   2.0000     -10.873859      -295.8927
   7   2.0000     -10.868334      -295.7424
   8   2.0000     -10.866452      -295.6912
   9   2.0000     -10.864017      -295.6249
  10   2.0000     -10.862252      -295.5769
  11   2.0000     -10.855630      -295.3967
  12   2.0000     -10.855033      -295.3805
  13   2.0000     -10.849186      -295.2214
  14   2.0000     -10.848614      -295.2058
  15   2.0000     -10.847552      -295.1769
  16   2.0000     -10.847036      -295.1629
  17   2.0000     -10.846595      -295.1508
  18   2.0000     -10.845569      -295.1229
  19   2.0000     -10.845486      -295.1207
  20   2.0000     -10.845224      -295.1135
  21   2.0000     -10.844107      -295.0832
  22   2.0000     -10.843864      -295.0765
  23   2.0000     -10.842171      -295.0305
  24   2.0000     -10.842009      -295.0261
  25   2.0000     -10.841287      -295.0064
  26   2.0000     -10.841181      -295.0035
  27   2.0000     -10.840874      -294.9952
  28   2.0000     -10.840640      -294.9888
  29   2.0000     -10.840420      -294.9828
  30   2.0000     -10.839999      -294.9714
  31   2.0000     -10.839959      -294.9703
  32   2.0000     -10.839925      -294.9694
  33   2.0000     -10.839664      -294.9623
  34   2.0000     -10.839514      -294.9582
  35   2.0000     -10.839361      -294.9540
  36   2.0000     -10.839049      -294.9455
  37   2.0000     -10.838854      -294.9402
  38   2.0000     -10.838658      -294.9349
  39   2.0000     -10.838620      -294.9338
  40   2.0000     -10.838604      -294.9334
  41   2.0000     -10.838018      -294.9175
  42   2.0000     -10.837232      -294.8961
  43   2.0000     -10.836063      -294.8643
  44   2.0000     -10.835453      -294.8477
  45   2.0000     -10.833158      -294.7852
  46   2.0000     -10.831372      -294.7366
  47   2.0000     -10.068856      -273.9875
  48   2.0000     -10.062311      -273.8094
  49   2.0000      -7.641096      -207.9248
  50   2.0000      -7.639917      -207.8927
  51   2.0000      -7.639649      -207.8854
  52   2.0000      -7.634615      -207.7484
  53   2.0000      -7.633292      -207.7124
  54   2.0000      -7.633117      -207.7077
  55   2.0000      -7.151745      -194.6089
  56   2.0000      -7.151575      -194.6043
  57   2.0000      -5.143397      -139.9589
  58   2.0000      -5.143380      -139.9585
  59   2.0000      -5.143229      -139.9544
  60   2.0000      -5.143170      -139.9528
  61   2.0000      -5.141891      -139.9180
  62   2.0000      -5.141689      -139.9125
  63   2.0000      -3.344715       -91.0143
  64   2.0000      -2.097402       -57.0732
  65   2.0000      -2.090018       -56.8723
  66   2.0000      -2.082226       -56.6603
  67   2.0000      -1.059898       -28.8413
  68   2.0000      -1.026461       -27.9314
  69   2.0000      -1.025216       -27.8976
  70   2.0000      -1.013628       -27.5822
  71   2.0000      -1.012386       -27.5484
  72   2.0000      -1.011371       -27.5208
  73   2.0000      -1.010270       -27.4908
  74   2.0000      -0.956440       -26.0261
  75   2.0000      -0.938510       -25.5382
  76   2.0000      -0.936511       -25.4838
  77   2.0000      -0.930619       -25.3234
  78   2.0000      -0.913556       -24.8591
  79   2.0000      -0.912609       -24.8333
  80   2.0000      -0.911624       -24.8065
  81   2.0000      -0.910907       -24.7870
  82   2.0000      -0.907988       -24.7076
  83   2.0000      -0.906572       -24.6691
  84   2.0000      -0.905079       -24.6285
  85   2.0000      -0.903915       -24.5968
  86   2.0000      -0.902402       -24.5556
  87   2.0000      -0.901791       -24.5390
  88   2.0000      -0.897570       -24.4241
  89   2.0000      -0.888103       -24.1665
  90   2.0000      -0.824579       -22.4379
  91   2.0000      -0.797967       -21.7138
  92   2.0000      -0.795816       -21.6552
  93   2.0000      -0.760401       -20.6916
  94   2.0000      -0.758843       -20.6492
  95   2.0000      -0.758045       -20.6275
  96   2.0000      -0.757203       -20.6045
  97   2.0000      -0.755658       -20.5625
  98   2.0000      -0.749100       -20.3840
  99   2.0000      -0.747167       -20.3314
 100   2.0000      -0.742602       -20.2072
 101   2.0000      -0.742125       -20.1943
 102   2.0000      -0.741217       -20.1695
 103   2.0000      -0.739848       -20.1323
 104   2.0000      -0.717198       -19.5159
 105   2.0000      -0.697626       -18.9834
 106   2.0000      -0.696601       -18.9555
 107   2.0000      -0.693087       -18.8598
 108   2.0000      -0.684178       -18.6174
 109   2.0000      -0.679548       -18.4914
 110   2.0000      -0.678685       -18.4679
 111   2.0000      -0.656912       -17.8755
 112   2.0000      -0.651078       -17.7167
 113   2.0000      -0.637860       -17.3570
 114   2.0000      -0.592454       -16.1215
 115   2.0000      -0.590623       -16.0717
 116   2.0000      -0.587535       -15.9876
 117   2.0000      -0.587142       -15.9769
 118   2.0000      -0.585195       -15.9240
 119   2.0000      -0.579902       -15.7799
 120   2.0000      -0.579488       -15.7687
 121   2.0000      -0.574258       -15.6264
 122   2.0000      -0.557663       -15.1748
 123   2.0000      -0.554321       -15.0839
 124   2.0000      -0.548917       -14.9368
 125   2.0000      -0.547270       -14.8920
 126   2.0000      -0.546274       -14.8649
 127   2.0000      -0.545688       -14.8489
 128   2.0000      -0.545388       -14.8408
 129   2.0000      -0.545116       -14.8334
 130   2.0000      -0.544046       -14.8042
 131   2.0000      -0.542491       -14.7619
 132   2.0000      -0.540626       -14.7112
 133   2.0000      -0.539941       -14.6925
 134   2.0000      -0.538765       -14.6605
 135   2.0000      -0.537744       -14.6327
 136   2.0000      -0.535821       -14.5804
 137   2.0000      -0.530307       -14.4304
 138   2.0000      -0.522876       -14.2282
 139   2.0000      -0.519810       -14.1447
 140   2.0000      -0.517703       -14.0874
 141   2.0000      -0.514520       -14.0008
 142   2.0000      -0.488536       -13.2937
 143   2.0000      -0.484308       -13.1787
 144   2.0000      -0.481159       -13.0930
 145   2.0000      -0.480573       -13.0771
 146   2.0000      -0.479075       -13.0363
 147   2.0000      -0.478039       -13.0081
 148   2.0000      -0.476009       -12.9529
 149   2.0000      -0.475081       -12.9276
 150   2.0000      -0.474418       -12.9096
 151   2.0000      -0.473414       -12.8822
 152   2.0000      -0.471025       -12.8172
 153   2.0000      -0.466306       -12.6888
 154   2.0000      -0.464616       -12.6429
 155   2.0000      -0.463132       -12.6025
 156   2.0000      -0.459036       -12.4910
 157   2.0000      -0.455648       -12.3988
 158   2.0000      -0.455204       -12.3867
 159   2.0000      -0.453295       -12.3348
 160   2.0000      -0.451291       -12.2802
 161   2.0000      -0.445997       -12.1362
 162   2.0000      -0.444021       -12.0824
 163   2.0000      -0.440529       -11.9874
 164   2.0000      -0.439118       -11.9490
 165   2.0000      -0.437230       -11.8976
 166   2.0000      -0.437082       -11.8936
 167   2.0000      -0.436325       -11.8730
 168   2.0000      -0.434381       -11.8201
 169   2.0000      -0.430847       -11.7239
 170   2.0000      -0.427560       -11.6345
 171   2.0000      -0.427051       -11.6207
 172   2.0000      -0.425294       -11.5728
 173   2.0000      -0.422651       -11.5009
 174   2.0000      -0.417381       -11.3575
 175   2.0000      -0.416073       -11.3219
 176   2.0000      -0.415304       -11.3010
 177   2.0000      -0.411315       -11.1924
 178   2.0000      -0.408936       -11.1277
 179   2.0000      -0.403414       -10.9775
 180   2.0000      -0.400259       -10.8916
 181   2.0000      -0.399833       -10.8800
 182   2.0000      -0.395392       -10.7592
 183   2.0000      -0.390023       -10.6131
 184   2.0000      -0.389695       -10.6041
 185   2.0000      -0.389224       -10.5913
 186   2.0000      -0.388043       -10.5592
 187   2.0000      -0.385287       -10.4842
 188   2.0000      -0.383609       -10.4385
 189   2.0000      -0.377996       -10.2858
 190   2.0000      -0.375465       -10.2169
 191   2.0000      -0.368219       -10.0198
 192   2.0000      -0.365726        -9.9519
 193   2.0000      -0.356297        -9.6953
 194   2.0000      -0.353902        -9.6302
 195   2.0000      -0.352843        -9.6014
 196   2.0000      -0.349464        -9.5094
 197   2.0000      -0.346079        -9.4173
 198   2.0000      -0.341885        -9.3032
 199   2.0000      -0.336317        -9.1516
 200   2.0000      -0.318901        -8.6777
 201   2.0000      -0.305953        -8.3254
 202   2.0000      -0.281553        -7.6614
 203   2.0000      -0.278538        -7.5794
 204   2.0000      -0.277168        -7.5421
 205   0.0000      -0.006383        -0.1737
 206   0.0000       0.018647         0.5074
 207   0.0000       0.038171         1.0387
 208   0.0000       0.040492         1.1018
 209   0.0000       0.043696         1.1890

MULLIKEN ATOMIC CHARGES
-----------------------
   0 Ru:   -2.029323
   1 Cl:   -0.858707
   2 Cl:   -0.945749
   3 P :   -2.032941
   4 P :   -3.476204
   5 C :    1.517694
   6 C :    0.307054
   7 C :    1.235255
   8 C :   -0.335146
   9 C :   -0.246122
  10 C :   -0.358915
  11 C :   -0.188001
  12 C :    0.780184
  13 C :    0.129538
  14 C :   -0.278452
  15 C :   -0.250842
  16 C :   -0.327236
  17 C :    0.199245
  18 C :    0.001470
  19 C :    0.635521
  20 C :   -0.539859
  21 C :    0.502308
  22 C :   -0.587664
  23 C :    0.518836
  24 C :    0.355665
  25 C :    0.599734
  26 C :   -0.434124
  27 C :    0.504470
  28 C :   -0.555919
  29 C :    0.369234
  30 C :    1.042626
  31 C :    0.053672
  32 C :   -0.209359
  33 C :   -0.321855
  34 C :   -0.214927
  35 C :   -0.179658
  36 C :    0.603645
  37 C :    0.862254
  38 C :   -0.394335
  39 C :   -0.188257
  40 C :   -0.442528
  41 C :   -0.001999
  42 H :    0.049654
  43 H :    1.142302
  44 H :    0.187111
  45 H :   -1.260417
  46 H :    0.017865
  47 H :    0.123975
  48 H :    0.071664
  49 H :    0.063112
  50 H :    0.062917
  51 H :    0.095744
  52 H :    0.062719
  53 H :    0.144247
  54 H :    0.697824
  55 H :   -0.303092
  56 H :    0.221503
  57 H :    0.086897
  58 H :    0.018881
  59 H :    0.055717
  60 H :    0.072709
  61 H :    0.073552
  62 H :    0.074891
  63 H :    0.163812
  64 H :   -0.233988
  65 H :    1.043179
  66 H :   -0.421262
  67 H :    0.239325
  68 H :   -0.001318
  69 H :    0.174980
  70 H :   -0.439645
  71 H :    0.033542
  72 H :    0.038098
  73 H :    0.082061
  74 H :   -0.045581
  75 H :   -0.127746
  76 H :    1.065854
  77 H :   -0.526180
  78 H :    0.315121
  79 H :   -0.012143
  80 H :    0.166839
  81 H :   -0.466238
  82 H :    0.004376
  83 H :    0.024981
  84 H :    0.072181
  85 H :   -0.121477
  86 H :    0.044764
  87 H :    0.842441
  88 H :    0.173547
  89 H :   -0.234885
  90 H :    0.068418
  91 H :    0.062348
  92 H :    0.066007
  93 H :    0.046177
  94 H :   -0.032775
  95 H :    0.141241
  96 H :   -0.215389
  97 H :    0.289240
  98 H :    1.027067
  99 H :    0.145597
 100 H :   -0.742277
 101 H :    0.055616
 102 H :    0.080597
 103 H :    0.061950
 104 H :    0.080656
 105 H :    0.053253
 106 H :    0.097858
 107 H :    0.065832
 108 H :    0.133293
 109 C :    0.688585
 110 C :   -0.533790
 111 C :   -0.320057
 112 C :   -0.083128
 113 C :   -1.657163
 114 C :    2.196389
 115 H :   -0.209484
 116 H :   -0.184065
 117 H :   -0.119524
 118 H :    0.426320
 119 H :   -0.123488
Sum of atomic charges:    0.0000000

LOEWDIN ATOMIC CHARGES
----------------------
   0 Ru:    0.344271
   1 Cl:    0.053203
   2 Cl:    0.068745
   3 P :    1.073549
   4 P :    1.078182
   5 C :   -0.152159
   6 C :   -0.306121
   7 C :   -0.034701
   8 C :   -0.001085
   9 C :   -0.014974
  10 C :   -0.006714
  11 C :   -0.020578
  12 C :   -0.298215
  13 C :   -0.030839
  14 C :   -0.003214
  15 C :   -0.015267
  16 C :   -0.004637
  17 C :   -0.017285
  18 C :   -0.286266
  19 C :   -0.050669
  20 C :   -0.001670
  21 C :   -0.008939
  22 C :   -0.001608
  23 C :   -0.033894
  24 C :   -0.285506
  25 C :   -0.057813
  26 C :   -0.001101
  27 C :   -0.010407
  28 C :   -0.001297
  29 C :   -0.035613
  30 C :   -0.288949
  31 C :   -0.018969
  32 C :   -0.004441
  33 C :   -0.014244
  34 C :   -0.005390
  35 C :   -0.029371
  36 C :   -0.305337
  37 C :   -0.031882
  38 C :   -0.001803
  39 C :   -0.014912
  40 C :   -0.006269
  41 C :   -0.021727
  42 H :   -0.093888
  43 H :   -0.054031
  44 H :    0.006936
  45 H :   -0.048653
  46 H :    0.013834
  47 H :    0.023188
  48 H :    0.018539
  49 H :    0.010173
  50 H :    0.011988
  51 H :    0.020754
  52 H :    0.006408
  53 H :    0.004757
  54 H :   -0.095430
  55 H :   -0.012673
  56 H :    0.005820
  57 H :    0.022650
  58 H :    0.013132
  59 H :    0.010779
  60 H :    0.018509
  61 H :    0.023134
  62 H :    0.012421
  63 H :    0.009281
  64 H :   -0.003958
  65 H :   -0.013266
  66 H :   -0.027358
  67 H :   -0.003714
  68 H :    0.012557
  69 H :    0.020269
  70 H :   -0.004390
  71 H :    0.014226
  72 H :    0.014634
  73 H :    0.020201
  74 H :    0.000905
  75 H :   -0.024866
  76 H :   -0.013049
  77 H :   -0.029741
  78 H :   -0.007996
  79 H :    0.010703
  80 H :    0.020981
  81 H :   -0.001804
  82 H :    0.014677
  83 H :    0.014765
  84 H :    0.020266
  85 H :   -0.000403
  86 H :   -0.033735
  87 H :   -0.082377
  88 H :    0.013064
  89 H :   -0.002681
  90 H :    0.012330
  91 H :    0.023028
  92 H :    0.018858
  93 H :    0.010802
  94 H :    0.015265
  95 H :    0.019188
  96 H :   -0.018235
  97 H :    0.004711
  98 H :   -0.054527
  99 H :    0.006080
 100 H :   -0.035333
 101 H :    0.013204
 102 H :    0.023186
 103 H :    0.018753
 104 H :    0.010453
 105 H :    0.012397
 106 H :    0.020965
 107 H :    0.005113
 108 H :    0.003300
 109 C :   -0.237489
 110 C :    0.055864
 111 C :    0.022736
 112 C :    0.032451
 113 C :    0.032374
 114 C :    0.007065
 115 H :    0.012282
 116 H :   -0.000912
 117 H :    0.005386
 118 H :   -0.090812
 119 H :    0.001900

  Mayer bond orders larger than 0.100000
B(  0-Ru,  1-Cl) :   1.1463 B(  0-Ru,  2-Cl) :   1.2181 B(  0-Ru,  3-P ) :  -0.2770
B(  0-Ru,  4-P ) :  -0.6451 B(  0-Ru,  5-C ) :   0.5786 B(  0-Ru,  6-C ) :   0.6287
B(  0-Ru,  7-C ) :  -0.1871 B(  0-Ru, 11-C ) :  -0.2866 B(  0-Ru, 12-C ) :   0.6144
B(  0-Ru, 18-C ) :   0.2004 B(  0-Ru, 19-C ) :  -0.1305 B(  0-Ru, 23-C ) :   0.2047
B(  0-Ru, 24-C ) :   0.3862 B(  0-Ru, 25-C ) :  -0.4108 B(  0-Ru, 29-C ) :   0.3969
B(  0-Ru, 30-C ) :   0.6537 B(  0-Ru, 31-C ) :  -0.1602 B(  0-Ru, 36-C ) :   0.7253
B(  0-Ru, 37-C ) :   0.2116 B(  0-Ru, 41-C ) :  -0.2213 B(  0-Ru, 42-H ) :  -0.4509
B(  0-Ru, 54-H ) :  -0.2914 B(  0-Ru, 66-H ) :   0.1022 B(  0-Ru, 77-H ) :   0.2177
B(  0-Ru, 87-H ) :  -0.1385 B(  0-Ru,107-H ) :  -0.1139 B(  0-Ru,109-C ) :   1.3867
B(  0-Ru,111-C ) :   0.2626 B(  0-Ru,113-C ) :   0.4441 B(  0-Ru,114-C ) :  -0.1923
B(  0-Ru,118-H ) :  -0.2105 B(  1-Cl,  3-P ) :  -0.2466 B(  1-Cl,  4-P ) :   0.3311
B(  1-Cl, 12-C ) :   0.1675 B(  1-Cl, 19-C ) :   0.1621 B(  1-Cl, 24-C ) :   0.1422
B(  1-Cl, 42-H ) :  -0.3925 B(  1-Cl, 54-H ) :  -0.2707 B(  1-Cl, 98-H ) :  -0.2749
B(  1-Cl,109-C ) :  -0.1131 B(  2-Cl,  3-P ) :  -0.4447 B(  2-Cl,  5-C ) :  -0.7979
B(  2-Cl,  6-C ) :   0.1332 B(  2-Cl,  7-C ) :   0.1681 B(  2-Cl, 23-C ) :   0.1093
B(  2-Cl, 24-C ) :  -0.1186 B(  2-Cl, 25-C ) :   0.2032 B(  2-Cl, 43-H ) :  -0.1827
B(  2-Cl, 75-H ) :  -0.1087 B(  2-Cl, 78-H ) :  -0.1732 B(  2-Cl, 87-H ) :  -0.3092
B(  2-Cl,109-C ) :   0.5722 B(  2-Cl,118-H ) :  -0.2091 B(  3-P ,  4-P ) :   0.8657
B(  3-P ,  5-C ) :  -0.2452 B(  3-P ,  6-C ) :  -0.4073 B(  3-P ,  7-C ) :  -0.2171
B(  3-P , 11-C ) :   0.3100 B(  3-P , 12-C ) :  -0.8851 B(  3-P , 13-C ) :   0.7983
B(  3-P , 14-C ) :  -0.1085 B(  3-P , 16-C ) :  -0.1561 B(  3-P , 17-C ) :  -0.1449
B(  3-P , 18-C ) :  -0.2173 B(  3-P , 19-C ) :   1.2669 B(  3-P , 22-C ) :  -0.1383
B(  3-P , 23-C ) :   0.3640 B(  3-P , 25-C ) :  -0.1803 B(  3-P , 35-C ) :   0.1171
B(  3-P , 43-H ) :  -0.9771 B(  3-P , 44-H ) :   0.3601 B(  3-P , 45-H ) :   0.2271
B(  3-P , 54-H ) :  -0.3623 B(  3-P , 55-H ) :  -0.4352 B(  3-P , 56-H ) :   0.1672
B(  3-P , 65-H ) :  -0.6127 B(  3-P , 66-H ) :  -0.1135 B(  3-P , 67-H ) :  -0.1348
B(  3-P , 74-H ) :  -0.1118 B(  3-P , 75-H ) :   0.1401 B(  3-P , 96-H ) :  -0.1291
B(  3-P ,109-C ) :  -0.1317 B(  3-P ,110-C ) :  -0.1136 B(  3-P ,114-C ) :   0.1673
B(  4-P ,  5-C ) :  -0.4491 B(  4-P , 19-C ) :  -0.1262 B(  4-P , 24-C ) :  -1.7925
B(  4-P , 25-C ) :   1.6190 B(  4-P , 28-C ) :  -0.1996 B(  4-P , 29-C ) :   0.1660
B(  4-P , 30-C ) :  -0.5978 B(  4-P , 31-C ) :  -0.2793 B(  4-P , 32-C ) :  -0.1751
B(  4-P , 34-C ) :  -0.1180 B(  4-P , 35-C ) :   1.0398 B(  4-P , 36-C ) :  -1.3180
B(  4-P , 37-C ) :   0.1283 B(  4-P , 41-C ) :   0.3818 B(  4-P , 76-H ) :  -0.7563
B(  4-P , 77-H ) :  -0.2652 B(  4-P , 78-H ) :  -0.2880 B(  4-P , 86-H ) :   0.1213
B(  4-P , 87-H ) :  -0.8387 B(  4-P , 88-H ) :   0.1024 B(  4-P , 96-H ) :  -0.5026
B(  4-P , 98-H ) :  -1.0591 B(  4-P , 99-H ) :   0.4968 B(  4-P ,100-H ) :  -0.2417
B(  4-P ,107-H ) :   0.1695 B(  4-P ,118-H ) :  -0.1038 B(  5-C , 23-C ) :  -0.1682
B(  5-C , 24-C ) :   0.2439 B(  5-C , 25-C ) :  -0.1442 B(  5-C , 29-C ) :  -0.1752
B(  5-C , 37-C ) :  -0.2165 B(  5-C , 42-H ) :   1.2474 B(  5-C , 45-H ) :   0.1284
B(  5-C , 54-H ) :   0.1360 B(  5-C , 76-H ) :   0.1296 B(  5-C ,109-C ) :   1.3851
B(  5-C ,110-C ) :  -1.0996 B(  5-C ,111-C ) :   0.1996 B(  5-C ,113-C ) :   0.4317
B(  5-C ,114-C ) :  -1.2179 B(  5-C ,115-H ) :   0.1833 B(  5-C ,118-H ) :   0.1069
B(  6-C ,  7-C ) :   0.1227 B(  6-C ,  8-C ) :   0.4246 B(  6-C , 10-C ) :   0.6431
B(  6-C , 11-C ) :   1.6359 B(  6-C , 12-C ) :   0.2605 B(  6-C , 18-C ) :   0.2373
B(  6-C , 23-C ) :   0.2090 B(  6-C , 43-H ) :   0.7350 B(  6-C , 44-H ) :  -0.1727
B(  6-C , 45-H ) :   1.0359 B(  6-C , 53-H ) :  -0.1177 B(  6-C , 54-H ) :   0.1078
B(  6-C ,109-C ) :   0.1109 B(  6-C ,113-C ) :   0.1481 B(  6-C ,114-C ) :  -0.2628
B(  7-C ,  8-C ) :   0.4503 B(  7-C ,  9-C ) :   0.1597 B(  7-C , 11-C ) :   0.2129
B(  7-C , 13-C ) :   0.1110 B(  7-C , 23-C ) :  -0.1184 B(  7-C , 43-H ) :   0.4043
B(  7-C , 44-H ) :   0.7050 B(  7-C , 45-H ) :  -0.2371 B(  7-C , 47-H ) :  -0.1319
B(  7-C ,109-C ) :  -0.1559 B(  7-C ,111-C ) :  -0.1201 B(  7-C ,113-C ) :  -0.3713
B(  7-C ,114-C ) :   0.2870 B(  8-C ,  9-C ) :   1.0135 B(  8-C , 11-C ) :   0.1198
B(  8-C , 44-H ) :  -0.2798 B(  8-C , 45-H ) :   0.7036 B(  8-C , 46-H ) :   1.0039
B(  8-C , 47-H ) :   0.9535 B(  9-C , 10-C ) :   1.0542 B(  9-C , 48-H ) :   0.9810
B(  9-C , 49-H ) :   1.0026 B( 10-C , 11-C ) :   0.8363 B( 10-C , 50-H ) :   0.9719
B( 10-C , 51-H ) :   0.9648 B( 10-C , 53-H ) :  -0.2144 B( 11-C , 18-C ) :   0.2971
B( 11-C , 43-H ) :  -0.5285 B( 11-C , 51-H ) :  -0.1053 B( 11-C , 52-H ) :   0.8116
B( 11-C , 53-H ) :   1.0269 B( 12-C , 13-C ) :   0.9015 B( 12-C , 14-C ) :   0.4877
B( 12-C , 15-C ) :   0.1130 B( 12-C , 16-C ) :   0.4017 B( 12-C , 17-C ) :   1.3186
B( 12-C , 18-C ) :   0.2150 B( 12-C , 19-C ) :   0.1507 B( 12-C , 25-C ) :   0.1472
B( 12-C , 43-H ) :   0.2571 B( 12-C , 45-H ) :   0.1128 B( 12-C , 54-H ) :   1.0948
B( 12-C , 55-H ) :   0.1386 B( 12-C , 56-H ) :  -0.1561 B( 12-C , 63-H ) :  -0.1340
B( 13-C , 14-C ) :   0.7255 B( 13-C , 15-C ) :   0.1667 B( 13-C , 54-H ) :  -0.2573
B( 13-C , 55-H ) :   0.7590 B( 13-C , 56-H ) :   1.0243 B( 14-C , 15-C ) :   0.9110
B( 14-C , 55-H ) :   0.3151 B( 14-C , 56-H ) :  -0.2279 B( 14-C , 57-H ) :   0.9897
B( 14-C , 58-H ) :   0.9762 B( 15-C , 16-C ) :   1.0663 B( 15-C , 17-C ) :   0.1740
B( 15-C , 54-H ) :  -0.1016 B( 15-C , 59-H ) :   0.9892 B( 15-C , 60-H ) :   0.9994
B( 16-C , 17-C ) :   1.0835 B( 16-C , 61-H ) :   0.9674 B( 16-C , 62-H ) :   0.9779
B( 16-C , 63-H ) :  -0.2130 B( 16-C , 64-H ) :   0.1667 B( 17-C , 54-H ) :  -0.2354
B( 17-C , 63-H ) :   0.9761 B( 17-C , 64-H ) :   0.8701 B( 18-C , 19-C ) :   1.2448
B( 18-C , 20-C ) :   0.8694 B( 18-C , 21-C ) :  -0.1034 B( 18-C , 22-C ) :   0.7921
B( 18-C , 23-C ) :   1.2542 B( 18-C , 65-H ) :   0.5667 B( 18-C , 66-H ) :   0.1061
B( 18-C , 75-H ) :   0.1791 B( 18-C , 77-H ) :   0.1230 B( 18-C ,109-C ) :   0.1181
B( 19-C , 20-C ) :   0.2120 B( 19-C , 22-C ) :   0.1971 B( 19-C , 23-C ) :  -0.1248
B( 19-C , 24-C ) :  -0.1810 B( 19-C , 25-C ) :   0.7986 B( 19-C , 29-C ) :  -0.1277
B( 19-C , 30-C ) :   0.1458 B( 19-C , 65-H ) :  -0.2562 B( 19-C , 66-H ) :   1.0145
B( 19-C , 67-H ) :   0.8179 B( 19-C , 69-H ) :  -0.1002 B( 19-C , 77-H ) :  -0.6436
B( 20-C , 21-C ) :   0.9198 B( 20-C , 22-C ) :   0.2818 B( 20-C , 23-C ) :   0.1309
B( 20-C , 66-H ) :   0.2542 B( 20-C , 68-H ) :   0.9684 B( 20-C , 69-H ) :   0.9587
B( 21-C , 22-C ) :   0.8641 B( 21-C , 70-H ) :   0.8809 B( 21-C , 71-H ) :   1.0241
B( 22-C , 23-C ) :   0.7390 B( 22-C , 65-H ) :  -0.2636 B( 22-C , 70-H ) :   0.1455
B( 22-C , 72-H ) :   0.9866 B( 22-C , 73-H ) :   0.9920 B( 23-C , 65-H ) :  -0.3152
B( 23-C , 73-H ) :  -0.1448 B( 23-C , 74-H ) :   0.9442 B( 23-C , 75-H ) :   0.8176
B( 24-C , 25-C ) :   0.6842 B( 24-C , 26-C ) :   0.7492 B( 24-C , 28-C ) :   0.8030
B( 24-C , 29-C ) :   1.3703 B( 24-C , 30-C ) :   0.3264 B( 24-C , 36-C ) :   0.2198
B( 24-C , 41-C ) :   0.2608 B( 24-C , 42-H ) :  -0.1571 B( 24-C , 66-H ) :   0.1622
B( 24-C , 76-H ) :   0.6132 B( 24-C , 77-H ) :   0.2365 B( 25-C , 26-C ) :   0.2778
B( 25-C , 28-C ) :   0.1245 B( 25-C , 29-C ) :  -0.1343 B( 25-C , 30-C ) :   0.2101
B( 25-C , 66-H ) :  -0.6379 B( 25-C , 76-H ) :  -0.1834 B( 25-C , 77-H ) :   1.2691
B( 25-C , 78-H ) :   0.8015 B( 25-C ,109-C ) :   0.1173 B( 26-C , 27-C ) :   0.9514
B( 26-C , 28-C ) :   0.2792 B( 26-C , 77-H ) :   0.2638 B( 26-C , 78-H ) :  -0.1113
B( 26-C , 79-H ) :   0.9586 B( 26-C , 80-H ) :   0.9408 B( 27-C , 28-C ) :   0.8787
B( 27-C , 81-H ) :   0.8885 B( 27-C , 82-H ) :   1.0412 B( 28-C , 29-C ) :   0.8789
B( 28-C , 76-H ) :  -0.2977 B( 28-C , 81-H ) :   0.1367 B( 28-C , 83-H ) :   0.9758
B( 28-C , 84-H ) :   0.9890 B( 29-C , 36-C ) :   0.2004 B( 29-C , 66-H ) :   0.1080
B( 29-C , 76-H ) :  -0.2830 B( 29-C , 78-H ) :   0.1210 B( 29-C , 84-H ) :  -0.1413
B( 29-C , 85-H ) :   0.9172 B( 29-C , 86-H ) :   0.8633 B( 30-C , 31-C ) :   1.2310
B( 30-C , 32-C ) :   0.2885 B( 30-C , 33-C ) :   0.1043 B( 30-C , 34-C ) :   0.4290
B( 30-C , 35-C ) :   0.7113 B( 30-C , 36-C ) :   0.2803 B( 30-C , 41-C ) :  -0.1351
B( 30-C , 66-H ) :  -0.1135 B( 30-C , 77-H ) :  -0.1125 B( 30-C , 87-H ) :   0.9846
B( 30-C , 88-H ) :  -0.1543 B( 30-C , 96-H ) :   0.1690 B( 30-C , 97-H ) :  -0.1326
B( 30-C , 98-H ) :   0.1938 B( 30-C ,109-C ) :  -0.1352 B( 31-C , 32-C ) :   1.1087
B( 31-C , 33-C ) :   0.2716 B( 31-C , 35-C ) :   0.1484 B( 31-C , 87-H ) :  -0.2980
B( 31-C , 88-H ) :   0.9754 B( 31-C , 89-H ) :   0.9144 B( 32-C , 33-C ) :   1.0207
B( 32-C , 88-H ) :  -0.1544 B( 32-C , 89-H ) :   0.1724 B( 32-C , 90-H ) :   0.9733
B( 32-C , 91-H ) :   0.9794 B( 33-C , 34-C ) :   0.9708 B( 33-C , 35-C ) :   0.2209
B( 33-C , 87-H ) :  -0.1639 B( 33-C , 92-H ) :   0.9861 B( 33-C , 93-H ) :   0.9693
B( 34-C , 35-C ) :   0.8595 B( 34-C , 94-H ) :   0.9907 B( 34-C , 95-H ) :   0.9386
B( 34-C , 96-H ) :   0.4243 B( 34-C , 97-H ) :  -0.3300 B( 35-C , 87-H ) :  -0.2695
B( 35-C , 96-H ) :   0.9279 B( 35-C , 97-H ) :   1.0577 B( 35-C ,114-C ) :   0.1173
B( 36-C , 37-C ) :   0.8544 B( 36-C , 38-C ) :   0.3962 B( 36-C , 40-C ) :   0.6895
B( 36-C , 41-C ) :   1.4982 B( 36-C , 87-H ) :   0.2165 B( 36-C , 98-H ) :   0.8578
B( 36-C , 99-H ) :  -0.2985 B( 36-C ,100-H ) :   0.4877 B( 36-C ,108-H ) :  -0.1190
B( 37-C , 38-C ) :   0.3888 B( 37-C , 99-H ) :   0.9527 B( 37-C ,100-H ) :   0.2791
B( 37-C ,102-H ) :  -0.1870 B( 38-C , 39-C ) :   1.0080 B( 38-C , 40-C ) :   0.1024
B( 38-C , 41-C ) :   0.1781 B( 38-C , 99-H ) :  -0.2901 B( 38-C ,100-H ) :   0.6942
B( 38-C ,101-H ) :   0.9752 B( 38-C ,102-H ) :   0.9932 B( 39-C , 40-C ) :   1.0423
B( 39-C ,103-H ) :   0.9948 B( 39-C ,104-H ) :   1.0016 B( 40-C , 41-C ) :   0.8151
B( 40-C ,105-H ) :   0.9727 B( 40-C ,106-H ) :   0.9632 B( 40-C ,108-H ) :  -0.2254
B( 41-C , 98-H ) :  -0.3731 B( 41-C ,107-H ) :   0.7994 B( 41-C ,108-H ) :   1.0197
B( 42-H ,109-C ) :   0.1314 B( 42-H ,113-C ) :  -0.1038 B( 42-H ,114-C ) :   0.1026
B( 43-H , 45-H ) :  -0.7028 B( 43-H , 65-H ) :   0.1004 B( 44-H , 45-H ) :   0.1423
B( 45-H ,109-C ) :   0.1453 B( 45-H ,110-C ) :  -0.1187 B( 45-H ,113-C ) :   0.1183
B( 45-H ,114-C ) :  -0.1202 B( 55-H ,109-C ) :  -0.1521 B( 55-H ,110-C ) :  -0.1661
B( 66-H , 77-H ) :   0.3617 B( 77-H , 78-H ) :   0.1321 B( 96-H ,113-C ) :  -0.1395
B( 98-H ,100-H ) :  -0.1994 B(100-H ,102-H ) :   0.1488 B(100-H ,109-C ) :  -0.1805
B(109-C ,110-C ) :   1.1302 B(109-C ,111-C ) :  -0.7795 B(109-C ,113-C ) :  -0.4253
B(109-C ,114-C ) :   1.6064 B(109-C ,115-H ) :  -0.2100 B(109-C ,118-H ) :   0.1480
B(110-C ,111-C ) :   1.4306 B(110-C ,113-C ) :  -0.3348 B(110-C ,114-C ) :   0.3726
B(110-C ,115-H ) :   1.0828 B(111-C ,112-C ) :   1.2149 B(111-C ,113-C ) :   0.6561
B(111-C ,114-C ) :  -0.5265 B(111-C ,115-H ) :  -0.1741 B(111-C ,116-H ) :   1.1941
B(111-C ,119-H ) :  -0.1477 B(112-C ,113-C ) :   1.4334 B(112-C ,114-C ) :  -0.3795
B(112-C ,116-H ) :  -0.1476 B(112-C ,117-H ) :  -0.1381 B(112-C ,119-H ) :   1.2242
B(113-C ,114-C ) :  -2.0799 B(113-C ,117-H ) :   1.2780 B(113-C ,118-H ) :  -0.3341
B(113-C ,119-H ) :  -0.1445 B(114-C ,117-H ) :  -0.2157 B(114-C ,118-H ) :   0.7291

MP2 TOTAL ENERGY:    -3377.602784648 Eh
Dispersion correction           -0.186139831
FINAL SINGLE POINT ENERGY     -3377.788924479510

DIPOLE MOMENT
-------------
                                X             Y             Z
Electronic contribution:     -1.21716     -10.25455       6.06041
Nuclear contribution   :      1.37032       9.70278      -6.14059
                        -----------------------------------------
Total Dipole Moment    :      0.15316      -0.55177      -0.08018
                        -----------------------------------------
Magnitude (a.u.)       :      0.57822
Magnitude (Debye)      :      1.46971

Rotational constants in cm-1:     0.002220     0.001632     0.001397
Rotational constants in MHz :    66.552191    48.939510    41.892048

                             ****ORCA TERMINATED NORMALLY****
TOTAL RUN TIME: 0 days 3 hours 17 minutes 26 seconds 520 msec
