                         Program Version 4.2.0 -  RELEASE  -
|  1> #
|  2> # TMB08_T1 ri-DSD-BLYP/2013-D3BJ/Def2-TZVPPD
|  3> #
|  4> ! rijk ri-dsd-blyp/2013 d3bj def2-tzvppd def2/jk def2-tzvppd/c grid4 nofinalgrid
|  5>
|  6> *xyz -1 1
|  7> O       -0.864683   -0.641223    1.501083
|  8> Mo       0.288309   -0.030923   -0.005993
|  9> O       -1.184159   -0.828813   -0.891579
| 10> S        2.210721   -0.462566    1.360243
| 11> C        3.288131   -1.501862    0.490518
| 12> C        2.967024   -1.951648   -0.740634
| 13> S        1.453819   -1.539049   -1.466752
| 14> S        0.162904    2.082815    1.150192
| 15> C        0.198674    3.373932   -0.002877
| 16> C        0.341525    3.101047   -1.316307
| 17> S        0.442237    1.474962   -1.896418
| 18> S       -2.702756   -1.277235    0.090908
| 19> C       -3.341924    0.299743    0.636465
| 20> H       -3.337931    0.314090    1.732942
| 21> H       -2.648387    1.079744    0.273451
| 22> H       -4.358042    0.459892    0.247281
| 23> C       -3.587204   -1.408361   -1.466934
| 24> H       -3.173718   -2.281309   -1.989593
| 25> H       -4.662596   -1.555426   -1.282985
| 26> H       -3.398030   -0.511824   -2.074907
| 27> C       -0.765264   -0.491871    2.877457
| 28> H       -0.827293    0.572940    3.181404
| 29> H       -1.595209   -1.039646    3.369476
| 30> H        0.192972   -0.897436    3.256104
| 31> H        3.640777   -2.597035   -1.314559
| 32> H        4.229728   -1.767232    0.982509
| 33> H        0.401774    3.897233   -2.066529
| 34> H        0.141166    4.396366    0.384198
| 35> *
| 36>
| 37> %maxcore 5000
| 38>
| 39> %pal
| 40> nprocs = 24
| 41> end
| 42>
| 43>
| 44>                          ****END OF INPUT****

CARTESIAN COORDINATES (ANGSTROEM)
---------------------------------
  O     -0.864683   -0.641223    1.501083
  Mo     0.288309   -0.030923   -0.005993
  O     -1.184159   -0.828813   -0.891579
  S      2.210721   -0.462566    1.360243
  C      3.288131   -1.501862    0.490518
  C      2.967024   -1.951648   -0.740634
  S      1.453819   -1.539049   -1.466752
  S      0.162904    2.082815    1.150192
  C      0.198674    3.373932   -0.002877
  C      0.341525    3.101047   -1.316307
  S      0.442237    1.474962   -1.896418
  S     -2.702756   -1.277235    0.090908
  C     -3.341924    0.299743    0.636465
  H     -3.337931    0.314090    1.732942
  H     -2.648387    1.079744    0.273451
  H     -4.358042    0.459892    0.247281
  C     -3.587204   -1.408361   -1.466934
  H     -3.173718   -2.281309   -1.989593
  H     -4.662596   -1.555426   -1.282985
  H     -3.398030   -0.511824   -2.074907
  C     -0.765264   -0.491871    2.877457
  H     -0.827293    0.572940    3.181404
  H     -1.595209   -1.039646    3.369476
  H      0.192972   -0.897436    3.256104
  H      3.640777   -2.597035   -1.314559
  H      4.229728   -1.767232    0.982509
  H      0.401774    3.897233   -2.066529
  H      0.141166    4.396366    0.384198

 Total Charge           Charge          ....   -1
 Multiplicity           Mult            ....    1
 Number of Electrons    NEL             ....  166
 Basis Dimension        Dim             ....  871

ORBITAL ENERGIES
----------------

  NO   OCC          E(Eh)            E(eV)
   0   2.0000     -90.852301     -2472.2168
   1   2.0000     -90.670088     -2467.2585
   2   2.0000     -90.667340     -2467.1837
   3   2.0000     -90.667330     -2467.1835
   4   2.0000     -90.667051     -2467.1759
   5   2.0000     -19.948873      -542.8364
   6   2.0000     -19.891782      -541.2829
   7   2.0000     -10.802189      -293.9425
   8   2.0000     -10.801527      -293.9245
   9   2.0000     -10.764873      -292.9271
  10   2.0000     -10.731680      -292.0239
  11   2.0000     -10.730276      -291.9857
  12   2.0000     -10.729190      -291.9561
  13   2.0000     -10.727882      -291.9205
  14   2.0000      -8.587154      -233.6684
  15   2.0000      -8.416648      -229.0286
  16   2.0000      -8.413627      -228.9464
  17   2.0000      -8.413267      -228.9366
  18   2.0000      -8.413229      -228.9356
  19   2.0000      -6.370135      -173.3402
  20   2.0000      -6.369556      -173.3244
  21   2.0000      -6.367346      -173.2643
  22   2.0000      -6.200250      -168.7174
  23   2.0000      -6.197788      -168.6504
  24   2.0000      -6.197537      -168.6436
  25   2.0000      -6.197198      -168.6343
  26   2.0000      -6.196891      -168.6260
  27   2.0000      -6.196795      -168.6234
  28   2.0000      -6.194669      -168.5655
  29   2.0000      -6.194588      -168.5633
  30   2.0000      -6.194353      -168.5569
  31   2.0000      -6.194254      -168.5542
  32   2.0000      -6.194152      -168.5514
  33   2.0000      -6.194015      -168.5477
  34   2.0000      -2.784252       -75.7633
  35   2.0000      -1.688051       -45.9342
  36   2.0000      -1.679431       -45.6996
  37   2.0000      -1.671335       -45.4793
  38   2.0000      -1.070406       -29.1272
  39   2.0000      -1.043547       -28.3963
  40   2.0000      -0.904773       -24.6201
  41   2.0000      -0.849387       -23.1130
  42   2.0000      -0.845868       -23.0172
  43   2.0000      -0.798187       -21.7198
  44   2.0000      -0.727955       -19.8087
  45   2.0000      -0.724386       -19.7116
  46   2.0000      -0.693621       -18.8744
  47   2.0000      -0.672542       -18.3008
  48   2.0000      -0.650566       -17.7028
  49   2.0000      -0.635081       -17.2814
  50   2.0000      -0.506467       -13.7817
  51   2.0000      -0.501542       -13.6476
  52   2.0000      -0.493937       -13.4407
  53   2.0000      -0.490202       -13.3391
  54   2.0000      -0.475705       -12.9446
  55   2.0000      -0.448338       -12.1999
  56   2.0000      -0.445476       -12.1220
  57   2.0000      -0.441182       -12.0052
  58   2.0000      -0.436289       -11.8720
  59   2.0000      -0.434064       -11.8115
  60   2.0000      -0.420245       -11.4355
  61   2.0000      -0.403647       -10.9838
  62   2.0000      -0.377625       -10.2757
  63   2.0000      -0.363198        -9.8831
  64   2.0000      -0.348946        -9.4953
  65   2.0000      -0.336831        -9.1656
  66   2.0000      -0.318212        -8.6590
  67   2.0000      -0.307196        -8.3592
  68   2.0000      -0.293161        -7.9773
  69   2.0000      -0.286287        -7.7903
  70   2.0000      -0.280733        -7.6391
  71   2.0000      -0.270319        -7.3558
  72   2.0000      -0.256107        -6.9690
  73   2.0000      -0.251185        -6.8351
  74   2.0000      -0.233148        -6.3443
  75   2.0000      -0.211653        -5.7594
  76   2.0000      -0.189703        -5.1621
  77   2.0000      -0.188488        -5.1290
  78   2.0000      -0.168668        -4.5897
  79   2.0000      -0.163007        -4.4356
  80   2.0000      -0.130620        -3.5543
  81   2.0000      -0.120660        -3.2833
  82   2.0000      -0.087131        -2.3709
  83   0.0000       0.093461         2.5432
  84   0.0000       0.117653         3.2015
  85   0.0000       0.121747         3.3129
  86   0.0000       0.128237         3.4895
  87   0.0000       0.134399         3.6572

MULLIKEN ATOMIC CHARGES
-----------------------
   0 O :   -0.379867
   1 Mo:    0.418217
   2 O :   -0.297107
   3 S :   -0.399790
   4 C :    0.218674
   5 C :    0.238352
   6 S :   -0.406240
   7 S :   -0.440086
   8 C :    0.182530
   9 C :    0.229130
  10 S :   -0.376040
  11 S :    0.217216
  12 C :    0.145421
  13 H :    0.046589
  14 H :   -0.080400
  15 H :    0.110995
  16 C :   -0.075965
  17 H :    0.048109
  18 H :    0.066640
  19 H :    0.046231
  20 C :   -0.180332
  21 H :    0.069486
  22 H :    0.002670
  23 H :    0.054211
  24 H :   -0.127308
  25 H :   -0.105717
  26 H :   -0.112822
  27 H :   -0.112802
Sum of atomic charges:   -1.0000000

LOEWDIN ATOMIC CHARGES
----------------------
   0 O :   -0.599021
   1 Mo:    0.408525
   2 O :   -0.707021
   3 S :    0.534217
   4 C :   -0.609768
   5 C :   -0.615016
   6 S :    0.516775
   7 S :    0.534015
   8 C :   -0.611560
   9 C :   -0.629450
  10 S :    0.498472
  11 S :    1.104048
  12 C :   -0.044976
  13 H :   -0.042249
  14 H :   -0.039866
  15 H :   -0.039169
  16 C :   -0.076711
  17 H :   -0.039881
  18 H :   -0.046418
  19 H :   -0.028807
  20 C :   -0.073584
  21 H :   -0.043661
  22 H :   -0.008783
  23 H :   -0.039889
  24 H :   -0.074276
  25 H :   -0.074968
  26 H :   -0.075142
  27 H :   -0.075836

  Mayer bond orders larger than 0.100000
B(  0-O ,  1-Mo) :   0.5001 B(  0-O , 20-C ) :   0.9966 B(  1-Mo,  2-O ) :   0.7320
B(  1-Mo,  3-S ) :   1.2247 B(  1-Mo,  6-S ) :   1.2830 B(  1-Mo,  7-S ) :   1.0246
B(  1-Mo, 10-S ) :   1.1022 B(  1-Mo, 11-S ) :   0.2048 B(  2-O ,  6-S ) :  -0.1303
B(  2-O , 11-S ) :   0.8537 B(  3-S ,  4-C ) :   0.9163 B(  4-C ,  5-C ) :   1.6688
B(  4-C , 24-H ) :  -0.1911 B(  4-C , 25-H ) :   1.1524 B(  5-C ,  6-S ) :   0.9394
B(  5-C , 24-H ) :   1.1586 B(  5-C , 25-H ) :  -0.1849 B(  7-S ,  8-C ) :   0.9322
B(  8-C ,  9-C ) :   1.6776 B(  8-C , 26-H ) :  -0.1802 B(  8-C , 27-H ) :   1.1631
B(  9-C , 10-S ) :   0.9540 B(  9-C , 26-H ) :   1.1295 B(  9-C , 27-H ) :  -0.1766
B( 11-S , 12-C ) :   0.7013 B( 11-S , 14-H ) :   0.1578 B( 11-S , 16-C ) :   0.8020
B( 12-C , 13-H ) :   1.0025 B( 12-C , 14-H ) :   0.9873 B( 12-C , 15-H ) :   0.9693
B( 16-C , 17-H ) :   1.0047 B( 16-C , 18-H ) :   1.0198 B( 16-C , 19-H ) :   1.0090
B( 20-C , 21-H ) :   1.0143 B( 20-C , 22-H ) :   1.0132 B( 20-C , 23-H ) :   1.0263

MP2 TOTAL ENERGY:    -2482.871755589 Eh
Dispersion correction           -0.060276269
FINAL SINGLE POINT ENERGY     -2482.932031858444

DIPOLE MOMENT
-------------
                                X             Y             Z
Electronic contribution:     26.92598      -2.68920      -3.83386
Nuclear contribution   :    -30.46451       1.96400       4.17914
                        -----------------------------------------
Total Dipole Moment    :     -3.53853      -0.72520       0.34528
                        -----------------------------------------
Magnitude (a.u.)       :      3.62854
Magnitude (Debye)      :      9.22303

Rotational constants in cm-1:     0.012781     0.009890     0.008747
Rotational constants in MHz :   383.176431   296.486696   262.216571

                             ****ORCA TERMINATED NORMALLY****
TOTAL RUN TIME: 0 days 0 hours 2 minutes 26 seconds 742 msec
