                         Program Version 4.2.0 -  RELEASE  -
|  1> #
|  2> # TMB06_C1 ri-DSD-BLYP/2013-D3BJ/Def2-TZVPPD
|  3> #
|  4> ! rijk ri-dsd-blyp/2013 d3bj def2-tzvppd def2/jk def2-tzvppd/c grid4 nofinalgrid
|  5>
|  6> *xyz -2 1
|  7> C       -4.922177    0.231539    2.107663
|  8> C       -4.446966   -0.260950    0.727306
|  9> O       -4.786048   -1.445661    0.381045
| 10> O       -3.774664    0.534657    0.034272
| 11> C        2.853834    2.539483    0.111094
| 12> S        1.699014    2.002949   -1.213407
| 13> C        2.621388   -0.654255    2.558361
| 14> S        1.079319    0.109893    2.243750
| 15> C        3.475179   -0.966107    1.545638
| 16> S        3.017258   -0.732048   -0.112289
| 17> C       -0.719852   -2.060810   -2.434513
| 18> S        0.476784   -0.759924   -2.482057
| 19> C       -1.165423   -2.576996   -1.263023
| 20> S       -0.426778   -2.115489    0.280596
| 21> W        0.581769    0.074169   -0.056710
| 22> O       -3.686516    3.100880   -0.970074
| 23> C       -0.958024    1.126222    0.768552
| 24> C       -1.050846    1.201510   -0.527136
| 25> H       -4.399031   -0.338057    2.886550
| 26> H       -4.651123    1.285347    2.215183
| 27> H        2.286624    2.922259    0.966567
| 28> H        3.439558    1.684807    0.443645
| 29> H       -3.719098    2.271105   -0.448699
| 30> H       -4.432659    3.004669   -1.574445
| 31> H       -1.423366    1.443209    1.691261
| 32> H       -1.628538    1.662411   -1.315772
| 33> H       -1.080680   -2.444086   -3.386693
| 34> H       -2.006521   -3.265324   -1.212989
| 35> H        3.558044    3.288012   -0.266819
| 36> H        2.852091   -0.869929    3.599516
| 37> H        4.480661   -1.317935    1.766923
| 38> H       -6.001258    0.102048    2.241238
| 39> *
| 40>
| 41> %maxcore 5000
| 42>
| 43> %pal
| 44> nprocs = 24
| 45> end
| 46>
| 47>
| 48>                          ****END OF INPUT****

CARTESIAN COORDINATES (ANGSTROEM)
---------------------------------
  C     -4.922177    0.231539    2.107663
  C     -4.446966   -0.260950    0.727306
  O     -4.786048   -1.445661    0.381045
  O     -3.774664    0.534657    0.034272
  C      2.853834    2.539483    0.111094
  S      1.699014    2.002949   -1.213407
  C      2.621388   -0.654255    2.558361
  S      1.079319    0.109893    2.243750
  C      3.475179   -0.966107    1.545638
  S      3.017258   -0.732048   -0.112289
  C     -0.719852   -2.060810   -2.434513
  S      0.476784   -0.759924   -2.482057
  C     -1.165423   -2.576996   -1.263023
  S     -0.426778   -2.115489    0.280596
  W      0.581769    0.074169   -0.056710
  O     -3.686516    3.100880   -0.970074
  C     -0.958024    1.126222    0.768552
  C     -1.050846    1.201510   -0.527136
  H     -4.399031   -0.338057    2.886550
  H     -4.651123    1.285347    2.215183
  H      2.286624    2.922259    0.966567
  H      3.439558    1.684807    0.443645
  H     -3.719098    2.271105   -0.448699
  H     -4.432659    3.004669   -1.574445
  H     -1.423366    1.443209    1.691261
  H     -1.628538    1.662411   -1.315772
  H     -1.080680   -2.444086   -3.386693
  H     -2.006521   -3.265324   -1.212989
  H      3.558044    3.288012   -0.266819
  H      2.852091   -0.869929    3.599516
  H      4.480661   -1.317935    1.766923
  H     -6.001258    0.102048    2.241238

 Total Charge           Charge          ....   -2
 Multiplicity           Mult            ....    1
 Number of Electrons    NEL             ....  188
 Basis Dimension        Dim             .... 1005

ORBITAL ENERGIES
----------------

  NO   OCC          E(Eh)            E(eV)
   0   2.0000     -90.633953     -2466.2752
   1   2.0000     -90.601901     -2465.4031
   2   2.0000     -90.593945     -2465.1866
   3   2.0000     -90.585267     -2464.9504
   4   2.0000     -90.581984     -2464.8611
   5   2.0000     -19.819711      -539.3218
   6   2.0000     -19.739150      -537.1296
   7   2.0000     -19.725103      -536.7473
   8   2.0000     -10.707041      -291.3534
   9   2.0000     -10.686620      -290.7977
  10   2.0000     -10.672697      -290.4189
  11   2.0000     -10.656985      -289.9913
  12   2.0000     -10.653127      -289.8863
  13   2.0000     -10.648430      -289.7585
  14   2.0000     -10.646313      -289.7009
  15   2.0000     -10.644509      -289.6518
  16   2.0000     -10.625446      -289.1331
  17   2.0000      -8.378812      -227.9991
  18   2.0000      -8.347841      -227.1563
  19   2.0000      -8.339477      -226.9287
  20   2.0000      -8.330747      -226.6911
  21   2.0000      -8.327038      -226.5902
  22   2.0000      -6.162147      -167.6806
  23   2.0000      -6.160210      -167.6278
  24   2.0000      -6.159352      -167.6045
  25   2.0000      -6.131424      -166.8445
  26   2.0000      -6.128831      -166.7740
  27   2.0000      -6.128388      -166.7619
  28   2.0000      -6.123025      -166.6160
  29   2.0000      -6.120913      -166.5585
  30   2.0000      -6.120030      -166.5345
  31   2.0000      -6.114495      -166.3839
  32   2.0000      -6.112310      -166.3244
  33   2.0000      -6.110808      -166.2835
  34   2.0000      -6.110783      -166.2829
  35   2.0000      -6.108485      -166.2203
  36   2.0000      -6.107479      -166.1930
  37   2.0000      -3.112111       -84.6848
  38   2.0000      -1.649435       -44.8834
  39   2.0000      -1.646758       -44.8106
  40   2.0000      -1.642228       -44.6873
  41   2.0000      -1.000603       -27.2278
  42   2.0000      -0.991930       -26.9918
  43   2.0000      -0.891610       -24.2620
  44   2.0000      -0.791549       -21.5391
  45   2.0000      -0.754267       -20.5247
  46   2.0000      -0.726695       -19.7744
  47   2.0000      -0.700958       -19.0740
  48   2.0000      -0.672246       -18.2928
  49   2.0000      -0.660149       -17.9636
  50   2.0000      -0.635164       -17.2837
  51   2.0000      -0.592384       -16.1196
  52   2.0000      -0.561363       -15.2755
  53   2.0000      -0.531958       -14.4753
  54   2.0000      -0.473633       -12.8882
  55   2.0000      -0.449501       -12.2316
  56   2.0000      -0.428037       -11.6475
  57   2.0000      -0.421990       -11.4829
  58   2.0000      -0.392345       -10.6763
  59   2.0000      -0.387754       -10.5513
  60   2.0000      -0.379720       -10.3327
  61   2.0000      -0.354395        -9.6436
  62   2.0000      -0.324173        -8.8212
  63   2.0000      -0.318360        -8.6630
  64   2.0000      -0.315850        -8.5947
  65   2.0000      -0.313389        -8.5277
  66   2.0000      -0.310438        -8.4474
  67   2.0000      -0.306412        -8.3379
  68   2.0000      -0.284704        -7.7472
  69   2.0000      -0.259988        -7.0746
  70   2.0000      -0.252200        -6.8627
  71   2.0000      -0.236211        -6.4276
  72   2.0000      -0.226969        -6.1762
  73   2.0000      -0.222271        -6.0483
  74   2.0000      -0.215705        -5.8696
  75   2.0000      -0.213072        -5.7980
  76   2.0000      -0.210314        -5.7229
  77   2.0000      -0.200553        -5.4573
  78   2.0000      -0.191241        -5.2039
  79   2.0000      -0.175042        -4.7631
  80   2.0000      -0.170201        -4.6314
  81   2.0000      -0.156516        -4.2590
  82   2.0000      -0.140479        -3.8226
  83   2.0000      -0.131577        -3.5804
  84   2.0000      -0.119097        -3.2408
  85   2.0000      -0.106659        -2.9023
  86   2.0000      -0.101603        -2.7648
  87   2.0000      -0.098322        -2.6755
  88   2.0000      -0.092528        -2.5178
  89   2.0000      -0.091271        -2.4836
  90   2.0000      -0.074036        -2.0146
  91   2.0000      -0.057576        -1.5667
  92   2.0000      -0.050845        -1.3836
  93   2.0000      -0.015190        -0.4133
  94   0.0000       0.182082         4.9547
  95   0.0000       0.184906         5.0315
  96   0.0000       0.197196         5.3660
  97   0.0000       0.201703         5.4886
  98   0.0000       0.206204         5.6111

MULLIKEN ATOMIC CHARGES
-----------------------
   0 C :   -0.120507
   1 C :    0.596287
   2 O :   -0.805863
   3 O :   -0.722743
   4 C :    0.223261
   5 S :   -0.617095
   6 C :    0.271898
   7 S :   -0.468103
   8 C :    0.168292
   9 S :   -0.558664
  10 C :    0.225927
  11 S :   -0.574182
  12 C :    0.309811
  13 S :   -0.544027
  14 W :    0.571850
  15 O :   -0.535964
  16 C :    0.313869
  17 C :    0.391102
  18 H :   -0.005694
  19 H :    0.059262
  20 H :    0.022973
  21 H :   -0.054791
  22 H :    0.395984
  23 H :    0.143008
  24 H :   -0.081971
  25 H :   -0.138421
  26 H :   -0.129378
  27 H :   -0.116569
  28 H :    0.010862
  29 H :   -0.112153
  30 H :   -0.122920
  31 H :    0.004658
Sum of atomic charges:   -2.0000000

LOEWDIN ATOMIC CHARGES
----------------------
   0 C :    0.168941
   1 C :   -0.639796
   2 O :   -0.151700
   3 O :   -0.103463
   4 C :   -0.326077
   5 S :    0.401450
   6 C :   -0.548928
   7 S :    0.606978
   8 C :   -0.582575
   9 S :    0.485514
  10 C :   -0.581297
  11 S :    0.423487
  12 C :   -0.541038
  13 S :    0.506245
  14 W :    0.225811
  15 O :    0.352469
  16 C :   -0.203682
  17 C :   -0.164541
  18 H :   -0.025071
  19 H :   -0.033044
  20 H :   -0.087952
  21 H :   -0.155554
  22 H :   -0.273569
  23 H :   -0.215137
  24 H :   -0.050826
  25 H :   -0.042116
  26 H :   -0.084258
  27 H :   -0.071951
  28 H :   -0.089489
  29 H :   -0.088179
  30 H :   -0.076638
  31 H :   -0.034015

  Mayer bond orders larger than 0.100000
B(  0-C ,  1-C ) :   0.8730 B(  0-C , 18-H ) :   1.0303 B(  0-C , 19-H ) :   0.9962
B(  0-C , 31-H ) :   1.0344 B(  1-C ,  2-O ) :   1.5128 B(  1-C ,  3-O ) :   1.5400
B(  4-C ,  5-S ) :   0.7448 B(  4-C ,  9-S ) :  -0.1538 B(  4-C , 20-H ) :   1.0182
B(  4-C , 21-H ) :   0.9367 B(  4-C , 28-H ) :   1.0166 B(  5-S , 14-W ) :   0.9681
B(  5-S , 16-C ) :  -0.1623 B(  6-C ,  7-S ) :   0.9050 B(  6-C ,  8-C ) :   1.4659
B(  6-C , 29-H ) :   1.1396 B(  6-C , 30-H ) :  -0.1731 B(  7-S , 14-W ) :   1.1568
B(  8-C ,  9-S ) :   1.0467 B(  8-C , 29-H ) :  -0.1444 B(  8-C , 30-H ) :   1.1596
B(  9-S , 14-W ) :   0.8018 B(  9-S , 21-H ) :   0.1058 B( 10-C , 11-S ) :   1.0289
B( 10-C , 12-C ) :   1.4841 B( 10-C , 26-H ) :   1.1384 B( 10-C , 27-H ) :  -0.1780
B( 11-S , 14-W ) :   0.8607 B( 11-S , 17-C ) :  -0.1317 B( 12-C , 13-S ) :   0.9207
B( 12-C , 26-H ) :  -0.1478 B( 12-C , 27-H ) :   1.1631 B( 13-S , 14-W ) :   1.0634
B( 13-S , 16-C ) :  -0.1080 B( 14-W , 16-C ) :   1.0580 B( 14-W , 17-C ) :   1.0880
B( 15-O , 22-H ) :   0.8046 B( 15-O , 23-H ) :   1.0449 B( 16-C , 17-C ) :   1.5357
B( 16-C , 24-H ) :   1.0024 B( 16-C , 25-H ) :  -0.1114 B( 17-C , 24-H ) :  -0.1127
B( 17-C , 25-H ) :   1.0113

MP2 TOTAL ENERGY:    -2633.658180858 Eh
Dispersion correction           -0.063582684
FINAL SINGLE POINT ENERGY     -2633.721763542244

DIPOLE MOMENT
-------------
                                X             Y             Z
Electronic contribution:     92.75116       4.49393     -11.68630
Nuclear contribution   :    -89.05733      -3.76163      13.00017
                        -----------------------------------------
Total Dipole Moment    :      3.69383       0.73230       1.31386
                        -----------------------------------------
Magnitude (a.u.)       :      3.98835
Magnitude (Debye)      :     10.13757

Rotational constants in cm-1:     0.010716     0.005373     0.005252
Rotational constants in MHz :   321.254043   161.065395   157.440366

                             ****ORCA TERMINATED NORMALLY****
TOTAL RUN TIME: 0 days 0 hours 3 minutes 9 seconds 830 msec
