                         Program Version 4.2.0 -  RELEASE  -
|  1> #
|  2> # TMB01_R1 ri-DSD-BLYP/2013-D3BJ/Def2-TZVPPD
|  3> #
|  4> ! rijk ri-dsd-blyp/2013 d3bj def2-tzvppd def2/jk def2-tzvppd/c grid4 nofinalgrid
|  5>
|  6> *xyz 0 1
|  7> Zr      -0.000671    0.112924   -0.223454
|  8> C       -2.181938   -0.834851   -1.042825
|  9> C       -1.643164   -1.771750   -0.135830
| 10> C       -2.502306    0.332733   -0.316676
| 11> H       -1.308937   -2.768103   -0.380464
| 12> C       -1.636664   -1.184419    1.151214
| 13> H       -2.895434    1.248967   -0.729119
| 14> C       -2.175001    0.113493    1.036510
| 15> H       -1.306352   -1.655857    2.064126
| 16> H       -2.282924    0.831022    1.835850
| 17> C        1.600796   -1.794999   -0.006343
| 18> C        2.125532   -0.971960   -1.023204
| 19> C        1.653632   -1.076274    1.213076
| 20> H        2.228565   -1.232630   -2.063673
| 21> C        2.505388    0.254502   -0.432287
| 22> H        1.350619   -1.442345    2.182051
| 23> C        2.228391    0.183709    0.945544
| 24> H        2.903936    1.111956   -0.952399
| 25> H        2.382975    0.976423    1.661482
| 26> Cl       0.011968    2.512474    0.074703
| 27> H       -0.001250   -0.010619   -2.053074
| 28> H       -2.330784   -0.986753   -2.099038
| 29> H        1.234974   -2.802168   -0.132604
| 30> *
| 31>
| 32> %maxcore 5000
| 33>
| 34> %pal
| 35> nprocs = 24
| 36> end
| 37>
| 38>
| 39>                          ****END OF INPUT****

CARTESIAN COORDINATES (ANGSTROEM)
---------------------------------
  Zr    -0.000671    0.112924   -0.223454
  C     -2.181938   -0.834851   -1.042825
  C     -1.643164   -1.771750   -0.135830
  C     -2.502306    0.332733   -0.316676
  H     -1.308937   -2.768103   -0.380464
  C     -1.636664   -1.184419    1.151214
  H     -2.895434    1.248967   -0.729119
  C     -2.175001    0.113493    1.036510
  H     -1.306352   -1.655857    2.064126
  H     -2.282924    0.831022    1.835850
  C      1.600796   -1.794999   -0.006343
  C      2.125532   -0.971960   -1.023204
  C      1.653632   -1.076274    1.213076
  H      2.228565   -1.232630   -2.063673
  C      2.505388    0.254502   -0.432287
  H      1.350619   -1.442345    2.182051
  C      2.228391    0.183709    0.945544
  H      2.903936    1.111956   -0.952399
  H      2.382975    0.976423    1.661482
  Cl     0.011968    2.512474    0.074703
  H     -0.001250   -0.010619   -2.053074
  H     -2.330784   -0.986753   -2.099038
  H      1.234974   -2.802168   -0.132604

 Total Charge           Charge          ....    0
 Multiplicity           Mult            ....    1
 Number of Electrons    NEL             ....  100
 Basis Dimension        Dim             ....  664

ORBITAL ENERGIES
----------------

  NO   OCC          E(Eh)            E(eV)
   0   2.0000    -103.586868     -2818.7420
   1   2.0000     -10.875104      -295.9266
   2   2.0000     -10.874296      -295.9046
   3   2.0000     -10.874133      -295.9002
   4   2.0000     -10.874004      -295.8967
   5   2.0000     -10.872985      -295.8690
   6   2.0000     -10.872685      -295.8608
   7   2.0000     -10.871151      -295.8191
   8   2.0000     -10.870752      -295.8082
   9   2.0000     -10.866393      -295.6896
  10   2.0000     -10.866169      -295.6835
  11   2.0000     -10.104638      -274.9612
  12   2.0000      -7.676368      -208.8846
  13   2.0000      -7.675837      -208.8701
  14   2.0000      -7.675328      -208.8563
  15   2.0000      -2.405366       -65.4533
  16   2.0000      -1.448540       -39.4168
  17   2.0000      -1.443673       -39.2843
  18   2.0000      -1.435884       -39.0724
  19   2.0000      -1.094954       -29.7952
  20   2.0000      -1.082145       -29.4467
  21   2.0000      -0.927398       -25.2358
  22   2.0000      -0.895913       -24.3790
  23   2.0000      -0.895164       -24.3586
  24   2.0000      -0.893844       -24.3227
  25   2.0000      -0.890410       -24.2293
  26   2.0000      -0.697263       -18.9735
  27   2.0000      -0.691979       -18.8297
  28   2.0000      -0.687927       -18.7195
  29   2.0000      -0.687411       -18.7054
  30   2.0000      -0.670159       -18.2360
  31   2.0000      -0.662257       -18.0209
  32   2.0000      -0.526530       -14.3276
  33   2.0000      -0.521320       -14.1858
  34   2.0000      -0.519980       -14.1494
  35   2.0000      -0.518022       -14.0961
  36   2.0000      -0.515191       -14.0191
  37   2.0000      -0.498029       -13.5521
  38   2.0000      -0.495777       -13.4908
  39   2.0000      -0.493317       -13.4238
  40   2.0000      -0.492376       -13.3982
  41   2.0000      -0.482762       -13.1366
  42   2.0000      -0.411640       -11.2013
  43   2.0000      -0.392633       -10.6841
  44   2.0000      -0.381980       -10.3942
  45   2.0000      -0.355549        -9.6750
  46   2.0000      -0.339116        -9.2278
  47   2.0000      -0.332266        -9.0414
  48   2.0000      -0.315321        -8.5803
  49   2.0000      -0.303289        -8.2529
  50   0.0000       0.022028         0.5994
  51   0.0000       0.035837         0.9752
  52   0.0000       0.044529         1.2117
  53   0.0000       0.049574         1.3490
  54   0.0000       0.053253         1.4491

MULLIKEN ATOMIC CHARGES
-----------------------
   0 Zr:    0.332733
   1 C :    0.162656
   2 C :    0.123777
   3 C :    0.013112
   4 H :    0.021357
   5 C :   -0.011205
   6 H :   -0.015365
   7 C :    0.015122
   8 H :   -0.000249
   9 H :   -0.045398
  10 C :    0.200301
  11 C :    0.088897
  12 C :   -0.046080
  13 H :   -0.039370
  14 C :   -0.022017
  15 H :    0.000959
  16 C :    0.062796
  17 H :   -0.023707
  18 H :   -0.037996
  19 Cl:   -0.594615
  20 H :   -0.217946
  21 H :   -0.016449
  22 H :    0.048688
Sum of atomic charges:    0.0000000

LOEWDIN ATOMIC CHARGES
----------------------
   0 Zr:    0.463760
   1 C :   -0.067436
   2 C :   -0.059253
   3 C :   -0.075955
   4 H :    0.004836
   5 C :   -0.054053
   6 H :    0.005604
   7 C :   -0.062539
   8 H :    0.005712
   9 H :    0.006629
  10 C :   -0.058609
  11 C :   -0.065997
  12 C :   -0.055745
  13 H :   -0.000068
  14 C :   -0.072125
  15 H :    0.004762
  16 C :   -0.067252
  17 H :    0.007903
  18 H :    0.004509
  19 Cl:    0.157767
  20 H :   -0.026812
  21 H :   -0.000503
  22 H :    0.004866

  Mayer bond orders larger than 0.100000
B(  0-Zr,  1-C ) :   0.2794 B(  0-Zr,  2-C ) :   0.3446 B(  0-Zr,  3-C ) :   0.4218
B(  0-Zr,  5-C ) :   0.3556 B(  0-Zr,  7-C ) :   0.3449 B(  0-Zr, 10-C ) :   0.3026
B(  0-Zr, 11-C ) :   0.2786 B(  0-Zr, 12-C ) :   0.3962 B(  0-Zr, 14-C ) :   0.4171
B(  0-Zr, 16-C ) :   0.3453 B(  0-Zr, 19-Cl) :   0.7270 B(  0-Zr, 20-H ) :   0.9335
B(  1-C ,  2-C ) :   1.3663 B(  1-C ,  3-C ) :   1.3665 B(  1-C ,  5-C ) :  -0.1015
B(  1-C , 21-H ) :   0.9186 B(  2-C ,  3-C ) :  -0.1273 B(  2-C ,  4-H ) :   0.8847
B(  2-C ,  5-C ) :   1.3367 B(  2-C ,  7-C ) :  -0.1456 B(  3-C ,  5-C ) :  -0.1279
B(  3-C ,  6-H ) :   0.9238 B(  3-C ,  7-C ) :   1.3759 B(  5-C ,  7-C ) :   1.3502
B(  5-C ,  8-H ) :   0.9262 B(  7-C ,  9-H ) :   0.9660 B( 10-C , 11-C ) :   1.3511
B( 10-C , 12-C ) :   1.3380 B( 10-C , 14-C ) :  -0.1301 B( 10-C , 16-C ) :  -0.1684
B( 10-C , 22-H ) :   0.8664 B( 11-C , 12-C ) :  -0.1074 B( 11-C , 13-H ) :   0.9399
B( 11-C , 14-C ) :   1.3873 B( 12-C , 14-C ) :  -0.1363 B( 12-C , 15-H ) :   0.9422
B( 12-C , 16-C ) :   1.3042 B( 14-C , 16-C ) :   1.4069 B( 14-C , 17-H ) :   0.9264
B( 16-C , 18-H ) :   0.9601

MP2 TOTAL ENERGY:     -894.397947622 Eh
Dispersion correction           -0.039055694
FINAL SINGLE POINT ENERGY      -894.437003316230

DIPOLE MOMENT
-------------
                                X             Y             Z
Electronic contribution:     -0.01718      12.97959     -12.55839
Nuclear contribution   :      0.01059     -14.41688      13.08524
                        -----------------------------------------
Total Dipole Moment    :     -0.00659      -1.43729       0.52685
                        -----------------------------------------
Magnitude (a.u.)       :      1.53082
Magnitude (Debye)      :      3.89103

Rotational constants in cm-1:     0.033538     0.025044     0.018059
Rotational constants in MHz :  1005.445647   750.792016   541.402542

                             ****ORCA TERMINATED NORMALLY****
TOTAL RUN TIME: 0 days 0 hours 0 minutes 54 seconds 125 msec
