                         Program Version 4.2.0 -  RELEASE  -
|  1> #
|  2> # TMB06_T1 ri-DSD-BLYP/2013-D3BJ/Def2-TZVPPD
|  3> #
|  4> ! rijk ri-dsd-blyp/2013 d3bj def2-tzvppd def2/jk def2-tzvppd/c grid4 nofinalgrid
|  5>
|  6> *xyz -2 1
|  7> C       -5.371545   -2.136160    0.336278
|  8> C       -4.697063   -0.763740    0.262018
|  9> O       -4.978822    0.003309   -0.707502
| 10> O       -3.902613   -0.505987    1.212120
| 11> C        2.635057   -0.678655    2.396830
| 12> S        2.063323    1.004526    1.938677
| 13> C        2.314937   -2.581636   -1.299530
| 14> S        0.864820   -2.286095   -0.358137
| 15> C        3.240953   -1.614445   -1.507242
| 16> S        2.972432   -0.000985   -0.910324
| 17> C       -0.891125    2.751712   -1.395439
| 18> S        0.528832    2.543841   -0.360303
| 19> C       -1.489329    1.702419   -2.015371
| 20> S       -0.828634    0.070077   -1.896647
| 21> W        0.627788    0.033115    0.107608
| 22> O       -2.320739    1.386691    1.151938
| 23> C       -0.689027   -0.837880    1.297595
| 24> C       -0.745952    0.472117    1.605961
| 25> H       -4.850130   -2.819358   -0.346804
| 26> H       -5.250819   -2.525653    1.350280
| 27> H        1.778524   -1.298220    2.681124
| 28> H        3.117621   -1.144410    1.536216
| 29> H       -3.029141    0.618126    1.100277
| 30> H       -2.171098    1.699602    0.245945
| 31> H       -1.140104   -1.782909    1.572954
| 32> H       -0.640990    1.084034    2.487860
| 33> H       -1.256518    3.767648   -1.529996
| 34> H       -2.404891    1.822493   -2.590760
| 35> H        3.371580   -0.608085    3.204035
| 36> H        2.423780   -3.583247   -1.710229
| 37> H        4.191166   -1.850203   -1.981855
| 38> H       -6.431678   -2.086675    0.066661
| 39> *
| 40>
| 41> %maxcore 5000
| 42>
| 43> %pal
| 44> nprocs = 24
| 45> end
| 46>
| 47>
| 48>                          ****END OF INPUT****

CARTESIAN COORDINATES (ANGSTROEM)
---------------------------------
  C     -5.371545   -2.136160    0.336278
  C     -4.697063   -0.763740    0.262018
  O     -4.978822    0.003309   -0.707502
  O     -3.902613   -0.505987    1.212120
  C      2.635057   -0.678655    2.396830
  S      2.063323    1.004526    1.938677
  C      2.314937   -2.581636   -1.299530
  S      0.864820   -2.286095   -0.358137
  C      3.240953   -1.614445   -1.507242
  S      2.972432   -0.000985   -0.910324
  C     -0.891125    2.751712   -1.395439
  S      0.528832    2.543841   -0.360303
  C     -1.489329    1.702419   -2.015371
  S     -0.828634    0.070077   -1.896647
  W      0.627788    0.033115    0.107608
  O     -2.320739    1.386691    1.151938
  C     -0.689027   -0.837880    1.297595
  C     -0.745952    0.472117    1.605961
  H     -4.850130   -2.819358   -0.346804
  H     -5.250819   -2.525653    1.350280
  H      1.778524   -1.298220    2.681124
  H      3.117621   -1.144410    1.536216
  H     -3.029141    0.618126    1.100277
  H     -2.171098    1.699602    0.245945
  H     -1.140104   -1.782909    1.572954
  H     -0.640990    1.084034    2.487860
  H     -1.256518    3.767648   -1.529996
  H     -2.404891    1.822493   -2.590760
  H      3.371580   -0.608085    3.204035
  H      2.423780   -3.583247   -1.710229
  H      4.191166   -1.850203   -1.981855
  H     -6.431678   -2.086675    0.066661

 Total Charge           Charge          ....   -2
 Multiplicity           Mult            ....    1
 Number of Electrons    NEL             ....  188
 Basis Dimension        Dim             .... 1005

ORBITAL ENERGIES
----------------

  NO   OCC          E(Eh)            E(eV)
   0   2.0000     -90.611404     -2465.6617
   1   2.0000     -90.589757     -2465.0726
   2   2.0000     -90.587615     -2465.0143
   3   2.0000     -90.578597     -2464.7689
   4   2.0000     -90.576021     -2464.6988
   5   2.0000     -19.805574      -538.9371
   6   2.0000     -19.765443      -537.8451
   7   2.0000     -19.750412      -537.4360
   8   2.0000     -10.729431      -291.9627
   9   2.0000     -10.669627      -290.3353
  10   2.0000     -10.667017      -290.2643
  11   2.0000     -10.660290      -290.0812
  12   2.0000     -10.655131      -289.9408
  13   2.0000     -10.651213      -289.8342
  14   2.0000     -10.650278      -289.8088
  15   2.0000     -10.638872      -289.4984
  16   2.0000     -10.622651      -289.0570
  17   2.0000      -8.356681      -227.3969
  18   2.0000      -8.335529      -226.8213
  19   2.0000      -8.332856      -226.7485
  20   2.0000      -8.323918      -226.5053
  21   2.0000      -8.321645      -226.4435
  22   2.0000      -6.140162      -167.0823
  23   2.0000      -6.137842      -167.0192
  24   2.0000      -6.137389      -167.0069
  25   2.0000      -6.119177      -166.5113
  26   2.0000      -6.116567      -166.4403
  27   2.0000      -6.116543      -166.4396
  28   2.0000      -6.116091      -166.4273
  29   2.0000      -6.114267      -166.3777
  30   2.0000      -6.113260      -166.3503
  31   2.0000      -6.107750      -166.2003
  32   2.0000      -6.105416      -166.1368
  33   2.0000      -6.105294      -166.1335
  34   2.0000      -6.104346      -166.1077
  35   2.0000      -6.103313      -166.0796
  36   2.0000      -6.101421      -166.0281
  37   2.0000      -3.090701       -84.1023
  38   2.0000      -1.629432       -44.3391
  39   2.0000      -1.626696       -44.2646
  40   2.0000      -1.622341       -44.1462
  41   2.0000      -1.025626       -27.9087
  42   2.0000      -0.980964       -26.6934
  43   2.0000      -0.920103       -25.0373
  44   2.0000      -0.776799       -21.1378
  45   2.0000      -0.757009       -20.5993
  46   2.0000      -0.709023       -19.2935
  47   2.0000      -0.692430       -18.8420
  48   2.0000      -0.678031       -18.4502
  49   2.0000      -0.654893       -17.8206
  50   2.0000      -0.633687       -17.2435
  51   2.0000      -0.579548       -15.7703
  52   2.0000      -0.558783       -15.2053
  53   2.0000      -0.524387       -14.2693
  54   2.0000      -0.472534       -12.8583
  55   2.0000      -0.452746       -12.3199
  56   2.0000      -0.438079       -11.9207
  57   2.0000      -0.421558       -11.4712
  58   2.0000      -0.390187       -10.6175
  59   2.0000      -0.375128       -10.2077
  60   2.0000      -0.367892       -10.0108
  61   2.0000      -0.357261        -9.7216
  62   2.0000      -0.330617        -8.9965
  63   2.0000      -0.330397        -8.9906
  64   2.0000      -0.327441        -8.9101
  65   2.0000      -0.321451        -8.7471
  66   2.0000      -0.309522        -8.4225
  67   2.0000      -0.293727        -7.9927
  68   2.0000      -0.283104        -7.7037
  69   2.0000      -0.266601        -7.2546
  70   2.0000      -0.255745        -6.9592
  71   2.0000      -0.249819        -6.7979
  72   2.0000      -0.235657        -6.4126
  73   2.0000      -0.222580        -6.0567
  74   2.0000      -0.214849        -5.8463
  75   2.0000      -0.202595        -5.5129
  76   2.0000      -0.196410        -5.3446
  77   2.0000      -0.184684        -5.0255
  78   2.0000      -0.177325        -4.8253
  79   2.0000      -0.160311        -4.3623
  80   2.0000      -0.147815        -4.0222
  81   2.0000      -0.138152        -3.7593
  82   2.0000      -0.132398        -3.6027
  83   2.0000      -0.124627        -3.3913
  84   2.0000      -0.120670        -3.2836
  85   2.0000      -0.116738        -3.1766
  86   2.0000      -0.114964        -3.1283
  87   2.0000      -0.096672        -2.6306
  88   2.0000      -0.095144        -2.5890
  89   2.0000      -0.081459        -2.2166
  90   2.0000      -0.064619        -1.7584
  91   2.0000      -0.051442        -1.3998
  92   2.0000      -0.036999        -1.0068
  93   2.0000      -0.007363        -0.2004
  94   0.0000       0.189093         5.1455
  95   0.0000       0.199495         5.4285
  96   0.0000       0.202150         5.5008
  97   0.0000       0.205482         5.5915
  98   0.0000       0.211648         5.7592

MULLIKEN ATOMIC CHARGES
-----------------------
   0 C :   -0.310107
   1 C :    0.776311
   2 O :   -0.758604
   3 O :   -0.670595
   4 C :    0.187049
   5 S :   -0.640233
   6 C :    0.255172
   7 S :   -0.482734
   8 C :    0.169505
   9 S :   -0.502710
  10 C :    0.247489
  11 S :   -0.570816
  12 C :    0.221553
  13 S :   -0.520206
  14 W :    0.646524
  15 O :   -0.588922
  16 C :   -0.057370
  17 C :    0.671373
  18 H :   -0.009311
  19 H :    0.084193
  20 H :    0.031953
  21 H :   -0.025693
  22 H :    0.435220
  23 H :    0.247485
  24 H :   -0.209175
  25 H :   -0.192825
  26 H :   -0.118914
  27 H :   -0.124635
  28 H :    0.035187
  29 H :   -0.118272
  30 H :   -0.136797
  31 H :    0.028904
Sum of atomic charges:   -2.0000000

LOEWDIN ATOMIC CHARGES
----------------------
   0 C :    0.173203
   1 C :   -0.601537
   2 O :   -0.107947
   3 O :    0.000110
   4 C :   -0.317785
   5 S :    0.392089
   6 C :   -0.564068
   7 S :    0.586524
   8 C :   -0.594953
   9 S :    0.468079
  10 C :   -0.591094
  11 S :    0.456360
  12 C :   -0.572936
  13 S :    0.512530
  14 W :    0.245660
  15 O :    0.309242
  16 C :   -0.232697
  17 C :   -0.226849
  18 H :   -0.018655
  19 H :   -0.030624
  20 H :   -0.093204
  21 H :   -0.132270
  22 H :   -0.280641
  23 H :   -0.230074
  24 H :   -0.063859
  25 H :   -0.049434
  26 H :   -0.077761
  27 H :   -0.067634
  28 H :   -0.089241
  29 H :   -0.089872
  30 H :   -0.081877
  31 H :   -0.028784

  Mayer bond orders larger than 0.100000
B(  0-C ,  1-C ) :   0.8889 B(  0-C , 18-H ) :   1.0367 B(  0-C , 19-H ) :   1.0141
B(  0-C , 31-H ) :   1.0540 B(  1-C ,  2-O ) :   1.5181 B(  1-C ,  3-O ) :   1.3781
B(  3-O , 22-H ) :   0.1658 B(  4-C ,  5-S ) :   0.7464 B(  4-C ,  9-S ) :  -0.1383
B(  4-C , 20-H ) :   1.0248 B(  4-C , 21-H ) :   0.9521 B(  4-C , 28-H ) :   0.9999
B(  5-S , 14-W ) :   0.8481 B(  6-C ,  7-S ) :   0.9229 B(  6-C ,  8-C ) :   1.5054
B(  6-C , 29-H ) :   1.1453 B(  6-C , 30-H ) :  -0.1775 B(  7-S , 14-W ) :   1.0671
B(  8-C ,  9-S ) :   1.0220 B(  8-C , 29-H ) :  -0.1484 B(  8-C , 30-H ) :   1.1731
B(  9-S , 14-W ) :   0.8075 B( 10-C , 11-S ) :   1.0488 B( 10-C , 12-C ) :   1.4063
B( 10-C , 26-H ) :   1.1726 B( 10-C , 27-H ) :  -0.2210 B( 11-S , 14-W ) :   0.7832
B( 12-C , 13-S ) :   1.0184 B( 12-C , 26-H ) :  -0.1813 B( 12-C , 27-H ) :   1.2060
B( 13-S , 14-W ) :   0.9287 B( 14-W , 16-C ) :   1.3575 B( 14-W , 17-C ) :   0.8279
B( 15-O , 17-C ) :   0.1015 B( 15-O , 22-H ) :   0.6139 B( 15-O , 23-H ) :   0.9162
B( 16-C , 17-C ) :   1.3656 B( 16-C , 24-H ) :   0.9795 B( 17-C , 25-H ) :   1.0716

MP2 TOTAL ENERGY:    -2633.645332966 Eh
Dispersion correction           -0.066343622
FINAL SINGLE POINT ENERGY     -2633.711676588591

DIPOLE MOMENT
-------------
                                X             Y             Z
Electronic contribution:     97.75969       9.18548      10.97030
Nuclear contribution   :    -95.08812     -10.49452     -10.64317
                        -----------------------------------------
Total Dipole Moment    :      2.67156      -1.30904       0.32713
                        -----------------------------------------
Magnitude (a.u.)       :      2.99296
Magnitude (Debye)      :      7.60751

Rotational constants in cm-1:     0.011727     0.005648     0.005281
Rotational constants in MHz :   351.552196   169.313101   158.324155

                             ****ORCA TERMINATED NORMALLY****
TOTAL RUN TIME: 0 days 0 hours 2 minutes 51 seconds 283 msec
