                         Program Version 4.2.0 -  RELEASE  -
|  1> #
|  2> # TMB09_T1 ri-DSD-BLYP/2013-D3BJ/Def2-TZVPPD
|  3> #
|  4> ! rijk ri-dsd-blyp/2013 d3bj def2-tzvppd def2/jk def2-tzvppd/c grid4 nofinalgrid
|  5>
|  6> *xyz 0 1
|  7> Mo       0.144293   -0.018278    0.187956
|  8> C       -1.882744   -1.070987   -0.485243
|  9> C       -1.076439    2.809087   -0.488683
| 10> H       -1.056313    3.572787    0.310053
| 11> H       -2.117393    2.730299   -0.852689
| 12> H       -0.453643    3.172151   -1.326804
| 13> C        1.996084   -2.290843   -0.946924
| 14> C        2.556730    1.794509   -0.039409
| 15> N       -0.610025    1.553803    0.004719
| 16> O        1.936938    0.565567   -0.322724
| 17> O        0.833025   -1.766355   -0.360705
| 18> H        1.780871   -2.689531   -1.957376
| 19> H        2.380311   -3.126092   -0.331250
| 20> H        2.779790   -1.516765   -1.025980
| 21> H        3.470410    1.892833   -0.654307
| 22> H        2.854397    1.863620    1.026056
| 23> H        1.897937    2.657406   -0.259961
| 24> C       -0.134457   -0.284271    2.087106
| 25> C       -1.864166   -1.358035    0.884748
| 26> H        0.299474   -1.167843    2.578202
| 27> H       -0.661177    0.399181    2.762773
| 28> H       -1.449974   -2.303708    1.234049
| 29> H       -2.567349   -0.858578    1.555883
| 30> C       -2.930318   -0.174171   -1.105185
| 31> H       -2.557155    0.344677   -2.001613
| 32> H       -3.799822   -0.779414   -1.421129
| 33> H       -3.293476    0.582538   -0.393193
| 34> H       -1.444854   -1.827941   -1.140932
| 35> *
| 36>
| 37> %maxcore 5000
| 38>
| 39> %pal
| 40> nprocs = 24
| 41> end
| 42>
| 43>
| 44>                          ****END OF INPUT****

CARTESIAN COORDINATES (ANGSTROEM)
---------------------------------
  Mo     0.144293   -0.018278    0.187956
  C     -1.882744   -1.070987   -0.485243
  C     -1.076439    2.809087   -0.488683
  H     -1.056313    3.572787    0.310053
  H     -2.117393    2.730299   -0.852689
  H     -0.453643    3.172151   -1.326804
  C      1.996084   -2.290843   -0.946924
  C      2.556730    1.794509   -0.039409
  N     -0.610025    1.553803    0.004719
  O      1.936938    0.565567   -0.322724
  O      0.833025   -1.766355   -0.360705
  H      1.780871   -2.689531   -1.957376
  H      2.380311   -3.126092   -0.331250
  H      2.779790   -1.516765   -1.025980
  H      3.470410    1.892833   -0.654307
  H      2.854397    1.863620    1.026056
  H      1.897937    2.657406   -0.259961
  C     -0.134457   -0.284271    2.087106
  C     -1.864166   -1.358035    0.884748
  H      0.299474   -1.167843    2.578202
  H     -0.661177    0.399181    2.762773
  H     -1.449974   -2.303708    1.234049
  H     -2.567349   -0.858578    1.555883
  C     -2.930318   -0.174171   -1.105185
  H     -2.557155    0.344677   -2.001613
  H     -3.799822   -0.779414   -1.421129
  H     -3.293476    0.582538   -0.393193
  H     -1.444854   -1.827941   -1.140932

 Total Charge           Charge          ....    0
 Multiplicity           Mult            ....    1
 Number of Electrons    NEL             ....   96
 Basis Dimension        Dim             ....  721

ORBITAL ENERGIES
----------------

  NO   OCC          E(Eh)            E(eV)
   0   2.0000     -19.993543      -544.0520
   1   2.0000     -19.991429      -543.9944
   2   2.0000     -15.111336      -411.2003
   3   2.0000     -10.897508      -296.5363
   4   2.0000     -10.883847      -296.1645
   5   2.0000     -10.882845      -296.1373
   6   2.0000     -10.875202      -295.9293
   7   2.0000     -10.869324      -295.7694
   8   2.0000     -10.863984      -295.6240
   9   2.0000     -10.857562      -295.4493
  10   2.0000      -2.942465       -80.0685
  11   2.0000      -1.849394       -50.3246
  12   2.0000      -1.837139       -49.9911
  13   2.0000      -1.828765       -49.7632
  14   2.0000      -1.162166       -31.6241
  15   2.0000      -1.152553       -31.3626
  16   2.0000      -1.019529       -27.7428
  17   2.0000      -0.984090       -26.7785
  18   2.0000      -0.866093       -23.5676
  19   2.0000      -0.812914       -22.1205
  20   2.0000      -0.796709       -21.6796
  21   2.0000      -0.789128       -21.4733
  22   2.0000      -0.768573       -20.9139
  23   2.0000      -0.710850       -19.3432
  24   2.0000      -0.601852       -16.3772
  25   2.0000      -0.564794       -15.3688
  26   2.0000      -0.555179       -15.1072
  27   2.0000      -0.550790       -14.9878
  28   2.0000      -0.546506       -14.8712
  29   2.0000      -0.541200       -14.7268
  30   2.0000      -0.536218       -14.5912
  31   2.0000      -0.530035       -14.4230
  32   2.0000      -0.522194       -14.2096
  33   2.0000      -0.517811       -14.0904
  34   2.0000      -0.512292       -13.9402
  35   2.0000      -0.494530       -13.4568
  36   2.0000      -0.489255       -13.3133
  37   2.0000      -0.482724       -13.1356
  38   2.0000      -0.457545       -12.4504
  39   2.0000      -0.446142       -12.1402
  40   2.0000      -0.398843       -10.8531
  41   2.0000      -0.379748       -10.3335
  42   2.0000      -0.372228       -10.1289
  43   2.0000      -0.357577        -9.7302
  44   2.0000      -0.351407        -9.5623
  45   2.0000      -0.329907        -8.9772
  46   2.0000      -0.318996        -8.6803
  47   2.0000      -0.286617        -7.7992
  48   0.0000       0.023866         0.6494
  49   0.0000       0.037607         1.0233
  50   0.0000       0.040419         1.0999
  51   0.0000       0.050571         1.3761
  52   0.0000       0.057738         1.5711

MULLIKEN ATOMIC CHARGES
-----------------------
   0 Mo:    0.866559
   1 C :    0.337197
   2 C :   -0.229210
   3 H :    0.085026
   4 H :    0.080868
   5 H :    0.119063
   6 C :   -0.131960
   7 C :    0.007394
   8 N :   -0.662515
   9 O :   -0.593815
  10 O :   -0.486955
  11 H :    0.057420
  12 H :    0.043108
  13 H :    0.067103
  14 H :    0.024272
  15 H :    0.016606
  16 H :    0.011960
  17 C :    0.179256
  18 C :    0.140523
  19 H :    0.058625
  20 H :    0.041133
  21 H :    0.126302
  22 H :    0.072260
  23 C :   -0.590451
  24 H :    0.029900
  25 H :    0.088632
  26 H :    0.050317
  27 H :    0.191381
Sum of atomic charges:   -0.0000000

LOEWDIN ATOMIC CHARGES
----------------------
   0 Mo:    1.233213
   1 C :   -0.184816
   2 C :    0.010026
   3 H :   -0.008018
   4 H :   -0.021583
   5 H :   -0.008312
   6 C :    0.007770
   7 C :   -0.012898
   8 N :   -0.144138
   9 O :   -0.399032
  10 O :   -0.391166
  11 H :   -0.007190
  12 H :   -0.007155
  13 H :   -0.021887
  14 H :   -0.007150
  15 H :   -0.009237
  16 H :   -0.026006
  17 C :    0.086146
  18 C :    0.079037
  19 H :   -0.083458
  20 H :   -0.089488
  21 H :   -0.017983
  22 H :   -0.010782
  23 C :    0.088767
  24 H :   -0.015438
  25 H :   -0.007884
  26 H :   -0.018100
  27 H :   -0.013239

  Mayer bond orders larger than 0.100000
B(  0-Mo,  1-C ) :   0.6784 B(  0-Mo,  2-C ) :   0.1097 B(  0-Mo,  8-N ) :   1.4590
B(  0-Mo,  9-O ) :   0.7525 B(  0-Mo, 10-O ) :   0.7805 B(  0-Mo, 17-C ) :   1.6209
B(  0-Mo, 18-C ) :   0.3166 B(  0-Mo, 23-C ) :   0.1740 B(  1-C , 10-O ) :  -0.1368
B(  1-C , 18-C ) :   1.2290 B(  1-C , 23-C ) :   0.9268 B(  1-C , 27-H ) :   0.9315
B(  2-C ,  3-H ) :   1.0328 B(  2-C ,  4-H ) :   0.9953 B(  2-C ,  5-H ) :   1.0071
B(  2-C ,  8-N ) :   0.5980 B(  6-C , 10-O ) :   0.8957 B(  6-C , 11-H ) :   1.0373
B(  6-C , 12-H ) :   1.0461 B(  6-C , 13-H ) :   1.0014 B(  7-C ,  9-O ) :   0.9254
B(  7-C , 14-H ) :   1.0482 B(  7-C , 15-H ) :   1.0278 B(  7-C , 16-H ) :   0.9900
B( 17-C , 18-C ) :   0.1466 B( 17-C , 19-H ) :   1.0316 B( 17-C , 20-H ) :   1.0305
B( 18-C , 21-H ) :   0.9556 B( 18-C , 22-H ) :   1.0150 B( 23-C , 24-H ) :   1.0278
B( 23-C , 25-H ) :   1.0378 B( 23-C , 26-H ) :   1.0205

MP2 TOTAL ENERGY:     -549.908408862 Eh
Dispersion correction           -0.032542761
FINAL SINGLE POINT ENERGY      -549.940951622624

DIPOLE MOMENT
-------------
                                X             Y             Z
Electronic contribution:     10.44218      -3.03683      13.44823
Nuclear contribution   :    -11.80214       3.30573     -13.02417
                        -----------------------------------------
Total Dipole Moment    :     -1.35996       0.26889       0.42406
                        -----------------------------------------
Magnitude (a.u.)       :      1.44969
Magnitude (Debye)      :      3.68483

Rotational constants in cm-1:     0.031577     0.026703     0.018834
Rotational constants in MHz :   946.666634   800.534327   564.625423

                             ****ORCA TERMINATED NORMALLY****
TOTAL RUN TIME: 0 days 0 hours 1 minutes 3 seconds 145 msec
