                         Program Version 4.2.0 -  RELEASE  -
|  1> # input to generate an atomic fitting density for W
|  2> # this file is use internally by ORCA
|  3> #
|  4> # atomic ground state (S=5): 1s2 2s2 2p6 3s2 3p6 4s2 3d10 4p6 5s2 4d10 5p6 6s2 4f14 5d4
|  5> #
|  6> ! RHF AllowRHF def2-SVP def2/J  NoMulliken NoLoewdin NoMayer NoPrintMOs
|  7>
|  8> %output print[p_atomdensfit] 2 end
|  9>
| 10> %scf
| 11>   guess hcore
| 12>   maxiter 1000
| 13>   maxdisk 500000
| 14>   SCFMode Conventional
| 15>   lshift 0.500000
| 16>   hftyp rohf
| 17>   rohf_case sahf
| 18>   rohf_numop   2
| 19>   rohf_norb[1] 5
| 20>   rohf_nel[1]  4
| 21> end
| 22>
| 23> %basis
| 24>   NewECP 74
| 25>     N_core 60
| 26>     lmax f
| 27>     s 3
| 28>       1      14.3228564000   1192.3958823000  2
| 29>       2       7.1614281000     32.5229332000  2
| 30>       3       2.2588885000    -14.1525795000  2
| 31>     p 3
| 32>       1      10.0216411000    359.0319671000  2
| 33>       2       5.0108204000     24.0303802000  2
| 34>       3       2.2588885000    -14.1525795000  2
| 35>     d 3
| 36>       1       6.5979974000    108.3013490000  2
| 37>       2       3.2989987000     10.9825283000  2
| 38>       3       2.2588885000    -14.1525795000  2
| 39>     f 1
| 40>       1       2.2588885000     14.1525795000  2
| 41>   end
| 42>   NewGTO 74
| 43>     s 3
| 44>      1      30.0000000000      1.1087519451
| 45>      2      27.0000000000     -1.6054504407
| 46>      3      13.0780456840      1.4681670492
| 47>     s 1
| 48>      1       4.8100449717      1.0000000000
| 49>     s 1
| 50>      1       0.9849780426      1.0000000000
| 51>     s 1
| 52>      1       0.4491048534      1.0000000000
| 53>     s 1
| 54>      1       0.1144835292      1.0000000000
| 55>     s 1
| 56>      1       0.0417204220      1.0000000000
| 57>     p 4
| 58>      1      17.0000000000     -0.0915365247
| 59>      2      12.4319734320      0.2639678450
| 60>      3       5.1586217658     -0.7116151539
| 61>      4       1.2801454812      1.2480085239
| 62>     p 1
| 63>      1       0.6285679090      1.0000000000
| 64>     p 1
| 65>      1       0.2938042355      1.0000000000
| 66>     p 1
| 67>      1       0.0650000000      1.0000000000
| 68>     d 4
| 69>      1       7.4064737315      0.0625854177
| 70>      2       5.9026268603     -0.1271042649
| 71>      3       1.2984756750      0.3967305737
| 72>      4       0.5715350854      0.6857074962
| 73>     d 1
| 74>      1       0.2384552661      1.0000000000
| 75>     d 1
| 76>      1       0.0911442673      1.0000000000
| 77>     p 1
| 78>      1       0.0279387790      1.0000000000
| 79>   end
| 80>   NewAuxGTO 74
| 81>     S 1
| 82>      1 1310.72 1.0
| 83>     S 1
| 84>      1  655.36 1.0
| 85>     S 1
| 86>      1  327.68 1.0
| 87>     S 1
| 88>      1  163.84 1.0
| 89>     S 1
| 90>      1   81.82 1.0
| 91>     S 1
| 92>      1   40.96 1.0
| 93>     S 1
| 94>      1   20.48 1.0
| 95>     S 1
| 96>      1   10.24 1.0
| 97>     S 1
| 98>      1    5.12 1.0
| 99>     S 1
|100>      1    2.56 1.0
|101>     S 1
|102>      1    1.28 1.0
|103>     S 1
|104>      1    0.64 1.0
|105>     S 1
|106>      1    0.32 1.0
|107>     S 1
|108>      1    0.16 1.0
|109>     S 1
|110>      1    0.08 1.0
|111>     S 1
|112>      1    0.04 1.0
|113>     S 1
|114>      1    0.02 1.0
|115>     S 1
|116>      1    0.01 1.0
|117>   end
|118> end
|119>
|120> * xyz 0 5
|121> 74  0.0 0.0 0.0
|122> *
|123>
|124>
|125>                          ****END OF INPUT****

CARTESIAN COORDINATES (ANGSTROEM)
---------------------------------
  W      0.000000    0.000000    0.000000

 Total Charge           Charge          ....    0
 Multiplicity           Mult            ....    5
 Number of Electrons    NEL             ....   14
 Basis Dimension        Dim             ....   36

ORBITAL ENERGIES
----------------

  NO   OCC          E(Eh)            E(eV)
   0   2.0000      -3.423484       -93.1577
   1   2.0000      -1.908377       -51.9296
   2   2.0000      -1.908023       -51.9199
   3   2.0000      -1.906485       -51.8781
   4   2.0000      -0.323315        -8.7979
   5   0.8000      -0.374724       -10.1968
   6   0.8000      -0.361122        -9.8266
   7   0.8000      -0.360422        -9.8076
   8   0.8000      -0.332411        -9.0454
   9   0.8000      -0.172256        -4.6873
  10   0.0000      -0.021954        -0.5974
  11   0.0000      -0.021717        -0.5909
  12   0.0000      -0.035574        -0.9680
  13   0.0000       0.080642         2.1944
  14   0.0000       0.085719         2.3325

CleanUpVectors: The p-vectors have cracked symmetry
CleanUpVectors: The p-vectors have cracked symmetry
CleanUpVectors: The p-vectors have cracked symmetry
CleanUpVectors: The d-vectors have cracked symmetry at i=4
CleanUpVectors: The d-vectors have cracked symmetry at i=6
CleanUpVectors: The d-vectors have cracked symmetry at i=7
CleanUpVectors: The d-vectors have cracked symmetry at i=8
CleanUpVectors: The p-vectors have cracked symmetry
CleanUpVectors: The p-vectors have cracked symmetry
CleanUpVectors: The p-vectors have cracked symmetry
CleanUpVectors: The d-vectors have cracked symmetry at i=12
CleanUpVectors: The p-vectors have cracked symmetry
CleanUpVectors: The p-vectors have cracked symmetry
CleanUpVectors: The p-vectors have cracked symmetry
CleanUpVectors: The d-vectors have cracked symmetry at i=17
CleanUpVectors: The d-vectors have cracked symmetry at i=18
CleanUpVectors: The d-vectors have cracked symmetry at i=19
CleanUpVectors: The d-vectors have cracked symmetry at i=20
CleanUpVectors: The d-vectors have cracked symmetry at i=21
CleanUpVectors: The p-vectors have cracked symmetry
CleanUpVectors: The p-vectors have cracked symmetry
CleanUpVectors: The p-vectors have cracked symmetry
CleanUpVectors: The d-vectors have cracked symmetry at i=25
CleanUpVectors: The d-vectors have cracked symmetry at i=26
CleanUpVectors: The d-vectors have cracked symmetry at i=27
CleanUpVectors: The d-vectors have cracked symmetry at i=28
CleanUpVectors: The d-vectors have cracked symmetry at i=29
CleanUpVectors: The p-vectors have cracked symmetry
CleanUpVectors: The p-vectors have cracked symmetry
CleanUpVectors: The p-vectors have cracked symmetry
--------------------------
ATOM BASIS FOR ELEMENT W
--------------------------
 NewGTO W
 S 8
    1         30.000000000000        -0.325019913468
    2         27.000000000000         0.470622275451
    3         13.078045684000        -0.430378976467
    4          4.810044971700         0.821608577314
    5          0.984978042600        -0.923568024337
    6          0.449104853400        -0.383051746239
    7          0.114483529200        -0.010968300902
    8          0.041720422000         0.002374675505
 P 22
    1         17.000000000000        -0.001081847776
    2         12.431973432000         0.003119771337
    3          5.158621765800        -0.008410405290
    4          1.280145481200         0.014749907212
    5         17.000000000000        -0.036155415709
    6         12.431973432000         0.104262939861
    7          5.158621765800        -0.281076234854
    8          1.280145481200         0.492942758513
    9         17.000000000000         0.000655682639
   10         12.431973432000        -0.001890820453
   11          5.158621765800         0.005097349973
   12          1.280145481200        -0.008939573842
   13          0.628567909000         0.014860494673
   14          0.628567909000         0.496638597888
   15          0.628567909000        -0.009006598316
   16          0.293804235500         0.005087257043
   17          0.293804235500         0.170016426825
   18          0.293804235500        -0.003083267531
   19          0.065000000000         0.000251171316
   20          0.065000000000         0.008394160030
   21          0.065000000000        -0.000152229061
   22          0.027938779000        -0.000068669231
 D 22
    1         30.000000000000         0.000000899720
    2         27.000000000000        -0.000001447529
    3         13.078045684000         0.000002732920
    4          4.810044971700        -0.000014896884
    5          0.984978042600         0.000141114648
    6          0.449104853400        -0.000060704900
    7          0.114483529200        -0.001089868021
    8          0.041720422000         0.001672658325
    9          7.406473731500         0.003313764398
   10          5.902626860300        -0.006729899765
   11          1.298475675000         0.021006037813
   12          0.571535085400         0.036306749590
   13          7.406473731500        -0.001493205287
   14          5.902626860300         0.003032539645
   15          1.298475675000        -0.009465466749
   16          0.571535085400        -0.016360073902
   17          7.406473731500        -0.012387066313
   18          5.902626860300         0.025156801949
   19          1.298475675000        -0.078521932192
   20          0.571535085400        -0.135716985505
   21          7.406473731500        -0.036580400399
   22          5.902626860300         0.074290866361
 S 8
    1         30.000000000000        -2.059109919814
    2         27.000000000000         2.981549608842
    3         13.078045684000        -2.726594842348
    4          4.810044971700         1.219435358936
    5          0.984978042600        -0.571831949384
    6          0.449104853400         0.390115631632
    7          0.114483529200        -0.132827681951
    8          0.041720422000         0.049555925409
 D 22
    1         30.000000000000        -0.000018297532
    2         27.000000000000         0.000029438285
    3         13.078045684000        -0.000055579162
    4          4.810044971700         0.000281082534
    5          0.984978042600        -0.000068437518
    6          0.449104853400        -0.010957088373
    7          0.114483529200         0.024586718538
    8          0.041720422000         0.110641661693
    9          7.406473731500        -0.032030568915
   10          5.902626860300         0.065050647034
   11          1.298475675000        -0.203042600794
   12          0.571535085400        -0.350937998335
   13          7.406473731500         0.001407722029
   14          5.902626860300        -0.002858932325
   15          1.298475675000         0.008923586179
   16          0.571535085400         0.015423489747
   17          7.406473731500        -0.020735741882
   18          5.902626860300         0.042112065812
   19          1.298475675000        -0.131444401513
   20          0.571535085400        -0.227187964391
   21          7.406473731500         0.004101448941
   22          5.902626860300        -0.008329602516
 P 22
    1         17.000000000000         0.001605677740
    2         12.431973432000        -0.004630362515
    3          5.158621765800         0.012482717863
    4          1.280145481200        -0.021891802344
    5         17.000000000000        -0.000130640011
    6         12.431973432000         0.000376732265
    7          5.158621765800        -0.001015610020
    8          1.280145481200         0.001781145265
    9         17.000000000000        -0.004554406120
   10         12.431973432000         0.013133738392
   11          5.158621765800        -0.035406461219
   12          1.280145481200         0.062094750456
   13          0.628567909000        -0.042709324168
   14          0.628567909000         0.003474885682
   15          0.628567909000         0.121142370311
   16          0.293804235500         0.023903281386
   17          0.293804235500        -0.001944801794
   18          0.293804235500        -0.067800187002
   19          0.065000000000         0.002723595776
   20          0.065000000000        -0.000221595264
   21          0.065000000000        -0.007725311849
   22          0.027938779000         0.327069559162
 P 22
    1         17.000000000000        -0.000252049801
    2         12.431973432000         0.000726846938
    3          5.158621765800        -0.001959463266
    4          1.280145481200         0.003436445731
    5         17.000000000000        -0.008423519021
    6         12.431973432000         0.024291267018
    7          5.158621765800        -0.065485376513
    8          1.280145481200         0.114846216569
    9         17.000000000000         0.000152761490
   10         12.431973432000        -0.000440524932
   11          5.158621765800         0.001187584865
   12          1.280145481200        -0.002082749399
   13          0.628567909000         0.004930119247
   14          0.628567909000         0.164764872514
   15          0.628567909000        -0.002988029989
   16          0.293804235500         0.003091588795
   17          0.293804235500         0.103321077676
   18          0.293804235500        -0.001873739675
   19          0.065000000000        -0.054038798701
   20          0.065000000000        -1.805979801357
   21          0.065000000000         0.032751652245
   22          0.027938779000         0.043204990154
 P 22
    1         17.000000000000         0.078010734074
    2         12.431973432000        -0.224962936138
    3          5.158621765800         0.606464148774
    4          1.280145481200        -1.063597961570
    5         17.000000000000        -0.006347054133
    6         12.431973432000         0.018303275190
    7          5.158621765800        -0.049342706840
    8          1.280145481200         0.086535704574
    9         17.000000000000        -0.221272647306
   10         12.431973432000         0.638093526690
   11          5.158621765800        -1.720198243078
   12          1.280145481200         3.016830176246
   13          0.628567909000         1.306027169989
   14          0.628567909000        -0.106260058247
   15          0.628567909000        -3.704465709584
   16          0.293804235500        -0.659702858454
   17          0.293804235500         0.053674277057
   18          0.293804235500         1.871206567379
   19          0.065000000000         0.198768453401
   20          0.065000000000        -0.016172058225
   21          0.065000000000        -0.563794488117
   22          0.027938779000        -0.093899153587
 D 22
    1         30.000000000000         0.000061086821
    2         27.000000000000        -0.000098280537
    3         13.078045684000         0.000185552583
    4          4.810044971700        -0.001003353295
    5          0.984978042600         0.005881872840
    6          0.449104853400         0.024561100006
    7          0.114483529200        -0.275212326386
    8          0.041720422000         0.354981532227
    9          7.406473731500        -0.012894042110
   10          5.902626860300         0.026186415370
   11          1.298475675000        -0.081735664818
   12          0.571535085400        -0.141271587793
   13          7.406473731500         0.000558702825
   14          5.902626860300        -0.001134665461
   15          1.298475675000         0.003541631586
   16          0.571535085400         0.006121341505
   17          7.406473731500        -0.008433336613
   18          5.902626860300         0.017127201355
   19          1.298475675000        -0.053459137856
   20          0.571535085400        -0.092398554582
   21          7.406473731500         0.001436902257
   22          5.902626860300        -0.002918194236
 D 22
    1         30.000000000000         0.000001276814
    2         27.000000000000        -0.000002054224
    3         13.078045684000         0.000003878352
    4          4.810044971700        -0.000021774602
    5          0.984978042600         0.000283271596
    6          0.449104853400        -0.000474513784
    7          0.114483529200        -0.000245597730
    8          0.041720422000         0.001147854843
    9          7.406473731500         0.007714173278
   10          5.902626860300        -0.015666657822
   11          1.298475675000         0.048900342964
   12          0.571535085400         0.084519152191
   13          7.406473731500        -0.002913013408
   14          5.902626860300         0.005916017525
   15          1.298475675000        -0.018465666975
   16          0.571535085400        -0.031915983053
   17          7.406473731500        -0.022764125375
   18          5.902626860300         0.046231494942
   19          1.298475675000        -0.144302376680
   20          0.571535085400        -0.249411635927
   21          7.406473731500        -0.070049293492
   22          5.902626860300         0.142262595398
 P 22
    1         17.000000000000        -0.221247676408
    2         12.431973432000         0.638021517030
    3          5.158621765800        -1.720004116535
    4          1.280145481200         3.016489723152
    5         17.000000000000         0.005202925291
    6         12.431973432000        -0.015003901245
    7          5.158621765800         0.040448121601
    8          1.280145481200        -0.070936657626
    9         17.000000000000        -0.078151172808
   10         12.431973432000         0.225367925404
   11          5.158621765800        -0.607555935157
   12          1.280145481200         1.065512702571
   13          0.628567909000        -3.704291472902
   14          0.628567909000         0.087111205433
   15          0.628567909000        -1.308464467194
   16          0.293804235500         1.871273488007
   17          0.293804235500        -0.044005416536
   18          0.293804235500         0.660988716836
   19          0.065000000000        -0.563903373764
   20          0.065000000000         0.013260917235
   21          0.065000000000        -0.199187221875
   22          0.027938779000         0.266351795720
 end
  // -----------------------------------------------
  // The basis set
  // -----------------------------------------------
  BAS[ATNO] = new BFNGauss[NSH];
  // Basis function   1 L = s
  InitBFNGauss(BAS[ATNO][  0]);
  BAS[ATNO][  0].l  = 0;
  BAS[ATNO][  0].ng = 8;
  BAS[ATNO][  0].a[  0] =        30.000000000000;     BAS[ATNO][  0].d[  0] =         0.325019913468;
  BAS[ATNO][  0].a[  1] =        27.000000000000;     BAS[ATNO][  0].d[  1] =        -0.470622275451;
  BAS[ATNO][  0].a[  2] =        13.078045684000;     BAS[ATNO][  0].d[  2] =         0.430378976467;
  BAS[ATNO][  0].a[  3] =         4.810044971700;     BAS[ATNO][  0].d[  3] =        -0.821608577314;
  BAS[ATNO][  0].a[  4] =         0.984978042600;     BAS[ATNO][  0].d[  4] =         0.923568024337;
  BAS[ATNO][  0].a[  5] =         0.449104853400;     BAS[ATNO][  0].d[  5] =         0.383051746239;
  BAS[ATNO][  0].a[  6] =         0.114483529200;     BAS[ATNO][  0].d[  6] =         0.010968300902;
  BAS[ATNO][  0].a[  7] =         0.041720422000;     BAS[ATNO][  0].d[  7] =        -0.002374675505;

FINAL SINGLE POINT ENERGY       -66.163208309470

DIPOLE MOMENT
-------------
                                X             Y             Z
Electronic contribution:      0.00000      -0.00000       0.00000
Nuclear contribution   :      0.00000       0.00000       0.00000
                        -----------------------------------------
Total Dipole Moment    :      0.00000      -0.00000       0.00000
                        -----------------------------------------
Magnitude (a.u.)       :      0.00000
Magnitude (Debye)      :      0.00000

Rotational constants in cm-1:     0.000000     0.000000     0.000000
Rotational constants in MHz :     0.000000     0.000000     0.000000

                             ****ORCA TERMINATED NORMALLY****
TOTAL RUN TIME: 0 days 0 hours 0 minutes 1 seconds 281 msec
