                         Program Version 4.2.0 -  RELEASE  -
|  1> #
|  2> # TMB01_R2 ri-DSD-BLYP/2013-D3BJ/Def2-TZVPPD
|  3> #
|  4> ! rijk ri-dsd-blyp/2013 d3bj def2-tzvppd def2/jk def2-tzvppd/c grid4 nofinalgrid
|  5>
|  6> *xyz 0 1
|  7> C        0.000000    0.000000    0.598253
|  8> C        0.000000    0.000000   -0.598253
|  9> H        0.000000    0.000000    1.662161
| 10> H        0.000000    0.000000   -1.662161
| 11> *
| 12>
| 13> %maxcore 5000
| 14>
| 15> %pal
| 16> nprocs = 24
| 17> end
| 18>
| 19>
| 20>                          ****END OF INPUT****

CARTESIAN COORDINATES (ANGSTROEM)
---------------------------------
  C      0.000000    0.000000    0.598253
  C      0.000000    0.000000   -0.598253
  H      0.000000    0.000000    1.662161
  H      0.000000    0.000000   -1.662161

 Total Charge           Charge          ....    0
 Multiplicity           Mult            ....    1
 Number of Electrons    NEL             ....   14
 Basis Dimension        Dim             ....  108

ORBITAL ENERGIES
----------------

  NO   OCC          E(Eh)            E(eV)
   0   2.0000     -10.864196      -295.6298
   1   2.0000     -10.860673      -295.5339
   2   2.0000      -0.936230       -25.4761
   3   2.0000      -0.698927       -19.0188
   4   2.0000      -0.619677       -16.8623
   5   2.0000      -0.375034       -10.2052
   6   2.0000      -0.375034       -10.2052
   7   0.0000       0.053311         1.4507
   8   0.0000       0.070231         1.9111
   9   0.0000       0.099348         2.7034
  10   0.0000       0.099348         2.7034
  11   0.0000       0.127492         3.4692

MULLIKEN ATOMIC CHARGES
-----------------------
   0 C :   -0.026528
   1 C :   -0.026860
   2 H :    0.026712
   3 H :    0.026677
Sum of atomic charges:    0.0000000

LOEWDIN ATOMIC CHARGES
----------------------
   0 C :    0.098041
   1 C :    0.098041
   2 H :   -0.098041
   3 H :   -0.098041

  Mayer bond orders larger than 0.100000
B(  0-C ,  1-C ) :   2.8104 B(  0-C ,  2-H ) :   1.0225 B(  1-C ,  3-H ) :   1.0225

MP2 TOTAL ENERGY:      -77.258586733 Eh
Dispersion correction           -0.001484732
FINAL SINGLE POINT ENERGY       -77.260071464630

DIPOLE MOMENT
-------------
                                X             Y             Z
Electronic contribution:      0.00000      -0.00000       0.00000
Nuclear contribution   :      0.00000       0.00000       0.00000
                        -----------------------------------------
Total Dipole Moment    :      0.00000      -0.00000       0.00000
                        -----------------------------------------
Magnitude (a.u.)       :      0.00000
Magnitude (Debye)      :      0.00000

Rotational constants in cm-1:     0.000000     1.189890     1.189890
Rotational constants in MHz :     0.000000 35672.008035 35672.008035

                             ****ORCA TERMINATED NORMALLY****
TOTAL RUN TIME: 0 days 0 hours 0 minutes 3 seconds 319 msec
