                         Program Version 4.2.0 -  RELEASE  -
|  1> #
|  2> # TMB01_T1 ri-DSD-BLYP/2013-D3BJ/Def2-TZVPPD
|  3> #
|  4> ! rijk ri-dsd-blyp/2013 d3bj def2-tzvppd def2/jk def2-tzvppd/c grid4 nofinalgrid
|  5>
|  6> *xyz 0 1
|  7> Zr       0.019829   -0.026802    0.120636
|  8> C        2.239874   -0.374444    1.245397
|  9> C        1.976783   -1.521588    0.474285
| 10> C        2.416443    0.711808    0.354001
| 11> H        1.819060   -2.516470    0.858019
| 12> C        2.001810   -1.148643   -0.895658
| 13> H        2.608112    1.737773    0.630719
| 14> C        2.298913    0.223349   -0.961356
| 15> H        1.861573   -1.806504   -1.739184
| 16> H        2.356666    0.814844   -1.859655
| 17> C       -1.057190   -2.235373    0.523484
| 18> C       -1.856346   -1.294393    1.201077
| 19> C       -1.167009   -1.987955   -0.868757
| 20> H       -2.005770   -1.236737    2.266001
| 21> C       -2.451652   -0.457501    0.227470
| 22> H       -0.689853   -2.550694   -1.656100
| 23> C       -2.043033   -0.903228   -1.046149
| 24> H       -3.108339    0.375352    0.426641
| 25> H       -2.305042   -0.449162   -1.987488
| 26> Cl      -0.345437    1.661478   -1.736503
| 27> C       -1.133945    2.698822    1.012771
| 28> C       -0.495222    2.377308    1.980322
| 29> H       -1.676629    3.004729    0.150271
| 30> H       -0.029188    0.104247    1.943645
| 31> H        0.041631    2.180985    2.876056
| 32> H        2.316195   -0.336400    2.319120
| 33> H       -0.485725   -3.023975    0.985751
| 34> *
| 35>
| 36> %maxcore 5000
| 37>
| 38> %pal
| 39> nprocs = 24
| 40> end
| 41>
| 42>
| 43>                          ****END OF INPUT****

CARTESIAN COORDINATES (ANGSTROEM)
---------------------------------
  Zr     0.019829   -0.026802    0.120636
  C      2.239874   -0.374444    1.245397
  C      1.976783   -1.521588    0.474285
  C      2.416443    0.711808    0.354001
  H      1.819060   -2.516470    0.858019
  C      2.001810   -1.148643   -0.895658
  H      2.608112    1.737773    0.630719
  C      2.298913    0.223349   -0.961356
  H      1.861573   -1.806504   -1.739184
  H      2.356666    0.814844   -1.859655
  C     -1.057190   -2.235373    0.523484
  C     -1.856346   -1.294393    1.201077
  C     -1.167009   -1.987955   -0.868757
  H     -2.005770   -1.236737    2.266001
  C     -2.451652   -0.457501    0.227470
  H     -0.689853   -2.550694   -1.656100
  C     -2.043033   -0.903228   -1.046149
  H     -3.108339    0.375352    0.426641
  H     -2.305042   -0.449162   -1.987488
  Cl    -0.345437    1.661478   -1.736503
  C     -1.133945    2.698822    1.012771
  C     -0.495222    2.377308    1.980322
  H     -1.676629    3.004729    0.150271
  H     -0.029188    0.104247    1.943645
  H      0.041631    2.180985    2.876056
  H      2.316195   -0.336400    2.319120
  H     -0.485725   -3.023975    0.985751

 Total Charge           Charge          ....    0
 Multiplicity           Mult            ....    1
 Number of Electrons    NEL             ....  114
 Basis Dimension        Dim             ....  772

ORBITAL ENERGIES
----------------

  NO   OCC          E(Eh)            E(eV)
   0   2.0000    -103.564188     -2818.1248
   1   2.0000     -10.877301      -295.9864
   2   2.0000     -10.871668      -295.8331
   3   2.0000     -10.871648      -295.8326
   4   2.0000     -10.870520      -295.8019
   5   2.0000     -10.866833      -295.7016
   6   2.0000     -10.866129      -295.6824
   7   2.0000     -10.865781      -295.6729
   8   2.0000     -10.865737      -295.6717
   9   2.0000     -10.864881      -295.6484
  10   2.0000     -10.864688      -295.6432
  11   2.0000     -10.861404      -295.5538
  12   2.0000     -10.861250      -295.5496
  13   2.0000     -10.082088      -274.3475
  14   2.0000      -7.654057      -208.2775
  15   2.0000      -7.653061      -208.2504
  16   2.0000      -7.652949      -208.2473
  17   2.0000      -2.400348       -65.3168
  18   2.0000      -1.444093       -39.2958
  19   2.0000      -1.437343       -39.1121
  20   2.0000      -1.430675       -38.9307
  21   2.0000      -1.088871       -29.6297
  22   2.0000      -1.076385       -29.2899
  23   2.0000      -0.951220       -25.8840
  24   2.0000      -0.909165       -24.7396
  25   2.0000      -0.890252       -24.2250
  26   2.0000      -0.889747       -24.2112
  27   2.0000      -0.888353       -24.1733
  28   2.0000      -0.883498       -24.0412
  29   2.0000      -0.707434       -19.2503
  30   2.0000      -0.692638       -18.8476
  31   2.0000      -0.686923       -18.6921
  32   2.0000      -0.682302       -18.5664
  33   2.0000      -0.681078       -18.5331
  34   2.0000      -0.665439       -18.1075
  35   2.0000      -0.656330       -17.8597
  36   2.0000      -0.626363       -17.0442
  37   2.0000      -0.522384       -14.2148
  38   2.0000      -0.516808       -14.0631
  39   2.0000      -0.514951       -14.0125
  40   2.0000      -0.513322       -13.9682
  41   2.0000      -0.508701       -13.8424
  42   2.0000      -0.493404       -13.4262
  43   2.0000      -0.490396       -13.3444
  44   2.0000      -0.487771       -13.2729
  45   2.0000      -0.485794       -13.2191
  46   2.0000      -0.476790       -12.9741
  47   2.0000      -0.418136       -11.3781
  48   2.0000      -0.395770       -10.7695
  49   2.0000      -0.386554       -10.5187
  50   2.0000      -0.374969       -10.2034
  51   2.0000      -0.361305        -9.8316
  52   2.0000      -0.342101        -9.3090
  53   2.0000      -0.336528        -9.1574
  54   2.0000      -0.319114        -8.6835
  55   2.0000      -0.296892        -8.0789
  56   2.0000      -0.289504        -7.8778
  57   0.0000       0.035316         0.9610
  58   0.0000       0.042939         1.1684
  59   0.0000       0.045351         1.2341
  60   0.0000       0.048258         1.3132
  61   0.0000       0.051808         1.4098

MULLIKEN ATOMIC CHARGES
-----------------------
   0 Zr:   -0.349826
   1 C :    0.101964
   2 C :    0.216984
   3 C :    0.054867
   4 H :    0.060477
   5 C :    0.081361
   6 H :    0.045782
   7 C :   -0.037446
   8 H :    0.024012
   9 H :    0.014363
  10 C :    0.083433
  11 C :    0.033511
  12 C :    0.180440
  13 H :    0.019619
  14 C :    0.050940
  15 H :    0.027457
  16 C :   -0.008008
  17 H :    0.127099
  18 H :   -0.031190
  19 Cl:   -0.675294
  20 C :   -0.075910
  21 C :    0.075834
  22 H :    0.055528
  23 H :   -0.130316
  24 H :    0.022072
  25 H :    0.001944
  26 H :    0.030303
Sum of atomic charges:   -0.0000000

LOEWDIN ATOMIC CHARGES
----------------------
   0 Zr:    0.554820
   1 C :   -0.061158
   2 C :   -0.058118
   3 C :   -0.054239
   4 H :    0.002733
   5 C :   -0.049208
   6 H :    0.008736
   7 C :   -0.082154
   8 H :    0.007110
   9 H :   -0.012824
  10 C :   -0.058936
  11 C :   -0.056969
  12 C :   -0.047423
  13 H :    0.001672
  14 C :   -0.056620
  15 H :    0.007793
  16 C :   -0.075268
  17 H :    0.005584
  18 H :   -0.009640
  19 Cl:    0.119966
  20 C :    0.046174
  21 C :    0.071519
  22 H :   -0.108058
  23 H :   -0.020384
  24 H :   -0.078144
  25 H :    0.000349
  26 H :    0.002687

  Mayer bond orders larger than 0.100000
B(  0-Zr,  1-C ) :   0.2540 B(  0-Zr,  2-C ) :   0.4116 B(  0-Zr,  3-C ) :   0.4521
B(  0-Zr,  5-C ) :   0.4907 B(  0-Zr,  7-C ) :   0.4568 B(  0-Zr, 10-C ) :   0.4816
B(  0-Zr, 11-C ) :   0.3138 B(  0-Zr, 12-C ) :   0.4094 B(  0-Zr, 14-C ) :   0.4820
B(  0-Zr, 16-C ) :   0.3645 B(  0-Zr, 19-Cl) :   0.5679 B(  0-Zr, 20-C ) :   0.2496
B(  0-Zr, 23-H ) :   1.0118 B(  1-C ,  2-C ) :   1.4166 B(  1-C ,  3-C ) :   1.3853
B(  1-C , 23-H ) :  -0.1350 B(  1-C , 25-H ) :   0.9100 B(  2-C ,  4-H ) :   0.8402
B(  2-C ,  5-C ) :   1.2266 B(  2-C ,  7-C ) :  -0.1247 B(  3-C ,  6-H ) :   0.9206
B(  3-C ,  7-C ) :   1.3583 B(  5-C ,  7-C ) :   1.3618 B(  5-C ,  8-H ) :   0.8993
B(  7-C ,  9-H ) :   0.9100 B( 10-C , 11-C ) :   1.4408 B( 10-C , 12-C ) :   1.2524
B( 10-C , 16-C ) :  -0.1012 B( 10-C , 26-H ) :   0.8589 B( 11-C , 12-C ) :  -0.1056
B( 11-C , 13-H ) :   0.9135 B( 11-C , 14-C ) :   1.4199 B( 12-C , 14-C ) :  -0.1119
B( 12-C , 15-H ) :   0.8774 B( 12-C , 16-C ) :   1.3305 B( 14-C , 16-C ) :   1.3905
B( 14-C , 17-H ) :   0.8802 B( 14-C , 19-Cl) :  -0.1321 B( 16-C , 18-H ) :   0.9265
B( 18-H , 19-Cl) :   0.1103 B( 20-C , 21-C ) :   2.5327 B( 20-C , 22-H ) :   1.0551
B( 20-C , 24-H ) :  -0.1434 B( 21-C , 24-H ) :   1.1318

MP2 TOTAL ENERGY:     -971.649232809 Eh
Dispersion correction           -0.045683276
FINAL SINGLE POINT ENERGY      -971.694916085168

DIPOLE MOMENT
-------------
                                X             Y             Z
Electronic contribution:      0.48646       2.09555       2.56150
Nuclear contribution   :     -0.31433      -2.93943      -1.59819
                        -----------------------------------------
Total Dipole Moment    :      0.17213      -0.84389       0.96331
                        -----------------------------------------
Magnitude (a.u.)       :      1.29219
Magnitude (Debye)      :      3.28448

Rotational constants in cm-1:     0.021527     0.019953     0.016159
Rotational constants in MHz :   645.375909   598.178243   484.447118

                             ****ORCA TERMINATED NORMALLY****
TOTAL RUN TIME: 0 days 0 hours 1 minutes 34 seconds 660 msec
