                         Program Version 4.2.0 -  RELEASE  -
|  1> #
|  2> # TMB08_C1 ri-DSD-BLYP/2013-D3BJ/Def2-TZVPPD
|  3> #
|  4> ! rijk ri-dsd-blyp/2013 d3bj def2-tzvppd def2/jk def2-tzvppd/c grid4 nofinalgrid
|  5>
|  6> *xyz -1 1
|  7> O       -0.906881    0.014085    1.547895
|  8> Mo       0.376053    0.005978   -0.001071
|  9> O       -1.663172   -0.405524   -0.725982
| 10> S        1.900189   -1.271673    1.262125
| 11> C        2.414735   -2.638587    0.321741
| 12> C        1.961707   -2.798175   -0.938062
| 13> S        0.862636   -1.648766   -1.631530
| 14> S        1.558394    1.801029    0.984387
| 15> C        1.596911    3.127556   -0.137889
| 16> C        1.038164    3.004113   -1.358311
| 17> S        0.284978    1.511994   -1.829576
| 18> S       -2.828559   -0.609282    0.265517
| 19> C       -3.471491    1.031204    0.628759
| 20> H       -2.700467    1.513975    1.240208
| 21> H       -3.606824    1.576556   -0.316000
| 22> H       -4.419892    0.937929    1.179101
| 23> C       -4.093537   -1.069425   -0.932883
| 24> H       -3.796770   -2.046338   -1.337942
| 25> H       -5.068961   -1.152599   -0.429186
| 26> H       -4.123504   -0.329731   -1.745777
| 27> C       -0.609178    0.103975    2.901511
| 28> H       -0.060534    1.039756    3.130388
| 29> H       -1.547958    0.094647    3.495802
| 30> H        0.020434   -0.743420    3.237520
| 31> H        2.283338   -3.631534   -1.572173
| 32> H        3.135734   -3.322762    0.781228
| 33> H        1.069667    3.809818   -2.099793
| 34> H        2.115872    4.037362    0.182319
| 35> *
| 36>
| 37> %maxcore 5000
| 38>
| 39> %pal
| 40> nprocs = 24
| 41> end
| 42>
| 43>
| 44>                          ****END OF INPUT****

CARTESIAN COORDINATES (ANGSTROEM)
---------------------------------
  O     -0.906881    0.014085    1.547895
  Mo     0.376053    0.005978   -0.001071
  O     -1.663172   -0.405524   -0.725982
  S      1.900189   -1.271673    1.262125
  C      2.414735   -2.638587    0.321741
  C      1.961707   -2.798175   -0.938062
  S      0.862636   -1.648766   -1.631530
  S      1.558394    1.801029    0.984387
  C      1.596911    3.127556   -0.137889
  C      1.038164    3.004113   -1.358311
  S      0.284978    1.511994   -1.829576
  S     -2.828559   -0.609282    0.265517
  C     -3.471491    1.031204    0.628759
  H     -2.700467    1.513975    1.240208
  H     -3.606824    1.576556   -0.316000
  H     -4.419892    0.937929    1.179101
  C     -4.093537   -1.069425   -0.932883
  H     -3.796770   -2.046338   -1.337942
  H     -5.068961   -1.152599   -0.429186
  H     -4.123504   -0.329731   -1.745777
  C     -0.609178    0.103975    2.901511
  H     -0.060534    1.039756    3.130388
  H     -1.547958    0.094647    3.495802
  H      0.020434   -0.743420    3.237520
  H      2.283338   -3.631534   -1.572173
  H      3.135734   -3.322762    0.781228
  H      1.069667    3.809818   -2.099793
  H      2.115872    4.037362    0.182319

 Total Charge           Charge          ....   -1
 Multiplicity           Mult            ....    1
 Number of Electrons    NEL             ....  166
 Basis Dimension        Dim             ....  871

ORBITAL ENERGIES
----------------

  NO   OCC          E(Eh)            E(eV)
   0   2.0000     -90.866983     -2472.6163
   1   2.0000     -90.671179     -2467.2882
   2   2.0000     -90.670481     -2467.2692
   3   2.0000     -90.667785     -2467.1959
   4   2.0000     -90.666973     -2467.1738
   5   2.0000     -19.924556      -542.1747
   6   2.0000     -19.883253      -541.0508
   7   2.0000     -10.799079      -293.8579
   8   2.0000     -10.794633      -293.7369
   9   2.0000     -10.758746      -292.7604
  10   2.0000     -10.730799      -291.9999
  11   2.0000     -10.730588      -291.9941
  12   2.0000     -10.729470      -291.9637
  13   2.0000     -10.728783      -291.9450
  14   2.0000      -8.597896      -233.9606
  15   2.0000      -8.417354      -229.0479
  16   2.0000      -8.416565      -229.0264
  17   2.0000      -8.413959      -228.9555
  18   2.0000      -8.413091      -228.9318
  19   2.0000      -6.381559      -173.6511
  20   2.0000      -6.381218      -173.6418
  21   2.0000      -6.378284      -173.5619
  22   2.0000      -6.200877      -168.7345
  23   2.0000      -6.200129      -168.7141
  24   2.0000      -6.198609      -168.6727
  25   2.0000      -6.198101      -168.6589
  26   2.0000      -6.197743      -168.6492
  27   2.0000      -6.197531      -168.6434
  28   2.0000      -6.197356      -168.6386
  29   2.0000      -6.196667      -168.6199
  30   2.0000      -6.195041      -168.5756
  31   2.0000      -6.194812      -168.5694
  32   2.0000      -6.194137      -168.5510
  33   2.0000      -6.193965      -168.5464
  34   2.0000      -2.770865       -75.3991
  35   2.0000      -1.673285       -45.5324
  36   2.0000      -1.667373       -45.3715
  37   2.0000      -1.656041       -45.0632
  38   2.0000      -1.135565       -30.9003
  39   2.0000      -1.054755       -28.7013
  40   2.0000      -0.886112       -24.1123
  41   2.0000      -0.848846       -23.0983
  42   2.0000      -0.845947       -23.0194
  43   2.0000      -0.797329       -21.6964
  44   2.0000      -0.726272       -19.7629
  45   2.0000      -0.723206       -19.6794
  46   2.0000      -0.685056       -18.6413
  47   2.0000      -0.664852       -18.0915
  48   2.0000      -0.651447       -17.7268
  49   2.0000      -0.634701       -17.2711
  50   2.0000      -0.507901       -13.8207
  51   2.0000      -0.502976       -13.6867
  52   2.0000      -0.500828       -13.6282
  53   2.0000      -0.489888       -13.3305
  54   2.0000      -0.485797       -13.2192
  55   2.0000      -0.444873       -12.1056
  56   2.0000      -0.444087       -12.0842
  57   2.0000      -0.442275       -12.0349
  58   2.0000      -0.439984       -11.9726
  59   2.0000      -0.431406       -11.7392
  60   2.0000      -0.421304       -11.4643
  61   2.0000      -0.410961       -11.1828
  62   2.0000      -0.395702       -10.7676
  63   2.0000      -0.375873       -10.2280
  64   2.0000      -0.358508        -9.7555
  65   2.0000      -0.318455        -8.6656
  66   2.0000      -0.307449        -8.3661
  67   2.0000      -0.294236        -8.0066
  68   2.0000      -0.291573        -7.9341
  69   2.0000      -0.281405        -7.6574
  70   2.0000      -0.280421        -7.6306
  71   2.0000      -0.266802        -7.2601
  72   2.0000      -0.247143        -6.7251
  73   2.0000      -0.242490        -6.5985
  74   2.0000      -0.234858        -6.3908
  75   2.0000      -0.211588        -5.7576
  76   2.0000      -0.198187        -5.3929
  77   2.0000      -0.192225        -5.2307
  78   2.0000      -0.166025        -4.5178
  79   2.0000      -0.156262        -4.2521
  80   2.0000      -0.133735        -3.6391
  81   2.0000      -0.131283        -3.5724
  82   2.0000      -0.090569        -2.4645
  83   0.0000       0.093523         2.5449
  84   0.0000       0.120033         3.2663
  85   0.0000       0.124034         3.3751
  86   0.0000       0.131313         3.5732
  87   0.0000       0.139097         3.7850

MULLIKEN ATOMIC CHARGES
-----------------------
   0 O :   -0.178327
   1 Mo:    0.051398
   2 O :   -0.429294
   3 S :   -0.370586
   4 C :    0.214856
   5 C :    0.200635
   6 S :   -0.350573
   7 S :   -0.356411
   8 C :    0.206384
   9 C :    0.195020
  10 S :   -0.363637
  11 S :    0.668948
  12 C :   -0.167432
  13 H :    0.038265
  14 H :    0.087839
  15 H :    0.092278
  16 C :   -0.212414
  17 H :    0.054859
  18 H :    0.071621
  19 H :    0.054629
  20 C :   -0.139460
  21 H :    0.063503
  22 H :   -0.021599
  23 H :    0.026532
  24 H :   -0.117527
  25 H :   -0.100191
  26 H :   -0.115508
  27 H :   -0.103809
Sum of atomic charges:   -1.0000000

LOEWDIN ATOMIC CHARGES
----------------------
   0 O :   -0.592682
   1 Mo:    0.375945
   2 O :   -0.736467
   3 S :    0.532765
   4 C :   -0.597423
   5 C :   -0.613235
   6 S :    0.510928
   7 S :    0.525042
   8 C :   -0.601653
   9 C :   -0.613065
  10 S :    0.506956
  11 S :    1.012541
  12 C :    0.007999
  13 H :   -0.044025
  14 H :   -0.027527
  15 H :   -0.035140
  16 C :   -0.027572
  17 H :   -0.038217
  18 H :   -0.042170
  19 H :   -0.033336
  20 C :   -0.073595
  21 H :   -0.042244
  22 H :   -0.010452
  23 H :   -0.044105
  24 H :   -0.074524
  25 H :   -0.074675
  26 H :   -0.075250
  27 H :   -0.074816

  Mayer bond orders larger than 0.100000
B(  0-O ,  1-Mo) :   0.5389 B(  0-O ,  2-O ) :  -0.1793 B(  0-O ,  3-S ) :  -0.1109
B(  0-O ,  7-S ) :  -0.1233 B(  0-O , 20-C ) :   1.0066 B(  1-Mo,  2-O ) :   0.3341
B(  1-Mo,  3-S ) :   1.3280 B(  1-Mo,  6-S ) :   1.3091 B(  1-Mo,  7-S ) :   1.2420
B(  1-Mo, 10-S ) :   1.2696 B(  2-O ,  6-S ) :  -0.1658 B(  2-O , 11-S ) :   1.3276
B(  3-S ,  4-C ) :   0.9288 B(  3-S ,  7-S ) :  -0.1011 B(  4-C ,  5-C ) :   1.6666
B(  4-C , 24-H ) :  -0.1804 B(  4-C , 25-H ) :   1.1490 B(  5-C ,  6-S ) :   0.9586
B(  5-C , 24-H ) :   1.1459 B(  5-C , 25-H ) :  -0.1773 B(  7-S ,  8-C ) :   0.9544
B(  8-C ,  9-C ) :   1.6748 B(  8-C , 26-H ) :  -0.1732 B(  8-C , 27-H ) :   1.1470
B(  9-C , 10-S ) :   0.9708 B(  9-C , 26-H ) :   1.1421 B(  9-C , 27-H ) :  -0.1774
B( 11-S , 12-C ) :   0.8440 B( 11-S , 16-C ) :   0.8332 B( 12-C , 13-H ) :   1.0353
B( 12-C , 14-H ) :   0.9857 B( 12-C , 15-H ) :   0.9892 B( 16-C , 17-H ) :   1.0206
B( 16-C , 18-H ) :   0.9822 B( 16-C , 19-H ) :   1.0107 B( 20-C , 21-H ) :   1.0019
B( 20-C , 22-H ) :   1.0300 B( 20-C , 23-H ) :   1.0241

MP2 TOTAL ENERGY:    -2482.893688173 Eh
Dispersion correction           -0.059858946
FINAL SINGLE POINT ENERGY     -2482.953547118791

DIPOLE MOMENT
-------------
                                X             Y             Z
Electronic contribution:     33.41671      -1.18941      -4.13565
Nuclear contribution   :    -37.01048       1.06082       4.72052
                        -----------------------------------------
Total Dipole Moment    :     -3.59377      -0.12859       0.58487
                        -----------------------------------------
Magnitude (a.u.)       :      3.64332
Magnitude (Debye)      :      9.26058

Rotational constants in cm-1:     0.012467     0.009914     0.008398
Rotational constants in MHz :   373.762122   297.203486   251.777416

                             ****ORCA TERMINATED NORMALLY****
TOTAL RUN TIME: 0 days 0 hours 2 minutes 6 seconds 119 msec
