                         Program Version 4.2.0 -  RELEASE  -
|  1> #
|  2> # TMB10_C1 ri-DSD-BLYP/2013-D3BJ/Def2-TZVPPD
|  3> #
|  4> ! rijk ri-dsd-blyp/2013 d3bj def2-tzvppd def2/jk def2-tzvppd/c grid4 nofinalgrid
|  5>
|  6> *xyz 0 1
|  7> Mo       0.133298    0.019814    0.066207
|  8> C       -1.075332   -1.355629   -0.909336
|  9> C       -2.072844    2.216315    0.675821
| 10> H       -2.495915    2.026095    1.680930
| 11> H       -2.910608    2.260759   -0.044542
| 12> H       -1.592380    3.211696    0.695601
| 13> C        3.010907   -1.316541   -0.054396
| 14> C        1.366704    2.705574   -0.540684
| 15> N       -1.143030    1.200231    0.316847
| 16> O        1.491405    1.304940   -0.439122
| 17> O        1.615447   -1.247555   -0.063202
| 18> H        3.367194   -2.025819   -0.825669
| 19> H        3.385726   -1.672276    0.926079
| 20> H        3.451946   -0.322838   -0.260301
| 21> H        2.294131    3.111318   -0.982908
| 22> H        1.229038    3.178184    0.450904
| 23> H        0.520365    2.998986   -1.190253
| 24> C       -0.462062   -1.067727    1.747714
| 25> C       -1.245054   -1.851214    0.615257
| 26> H        0.321659   -1.674412    2.211474
| 27> H       -1.131198   -0.604236    2.478956
| 28> H       -0.901967   -2.892720    0.638908
| 29> H       -2.316994   -1.775934    0.836451
| 30> C       -2.372818   -1.072037   -1.638655
| 31> H       -2.166926   -0.639290   -2.630957
| 32> H       -2.958163   -1.996472   -1.801781
| 33> H       -3.005382   -0.361002   -1.085358
| 34> H       -0.439666   -2.067375   -1.451890
| 35> *
| 36>
| 37> %maxcore 5000
| 38>
| 39> %pal
| 40> nprocs = 24
| 41> end
| 42>
| 43>
| 44>                          ****END OF INPUT****

CARTESIAN COORDINATES (ANGSTROEM)
---------------------------------
  Mo     0.133298    0.019814    0.066207
  C     -1.075332   -1.355629   -0.909336
  C     -2.072844    2.216315    0.675821
  H     -2.495915    2.026095    1.680930
  H     -2.910608    2.260759   -0.044542
  H     -1.592380    3.211696    0.695601
  C      3.010907   -1.316541   -0.054396
  C      1.366704    2.705574   -0.540684
  N     -1.143030    1.200231    0.316847
  O      1.491405    1.304940   -0.439122
  O      1.615447   -1.247555   -0.063202
  H      3.367194   -2.025819   -0.825669
  H      3.385726   -1.672276    0.926079
  H      3.451946   -0.322838   -0.260301
  H      2.294131    3.111318   -0.982908
  H      1.229038    3.178184    0.450904
  H      0.520365    2.998986   -1.190253
  C     -0.462062   -1.067727    1.747714
  C     -1.245054   -1.851214    0.615257
  H      0.321659   -1.674412    2.211474
  H     -1.131198   -0.604236    2.478956
  H     -0.901967   -2.892720    0.638908
  H     -2.316994   -1.775934    0.836451
  C     -2.372818   -1.072037   -1.638655
  H     -2.166926   -0.639290   -2.630957
  H     -2.958163   -1.996472   -1.801781
  H     -3.005382   -0.361002   -1.085358
  H     -0.439666   -2.067375   -1.451890

 Total Charge           Charge          ....    0
 Multiplicity           Mult            ....    1
 Number of Electrons    NEL             ....   96
 Basis Dimension        Dim             ....  721

ORBITAL ENERGIES
----------------

  NO   OCC          E(Eh)            E(eV)
   0   2.0000     -20.010911      -544.5246
   1   2.0000     -19.991360      -543.9926
   2   2.0000     -15.122729      -411.5104
   3   2.0000     -10.889754      -296.3253
   4   2.0000     -10.884405      -296.1797
   5   2.0000     -10.880981      -296.0865
   6   2.0000     -10.873074      -295.8714
   7   2.0000     -10.867690      -295.7249
   8   2.0000     -10.862183      -295.5750
   9   2.0000     -10.851787      -295.2921
  10   2.0000      -2.957426       -80.4757
  11   2.0000      -1.861050       -50.6417
  12   2.0000      -1.854584       -50.4658
  13   2.0000      -1.840772       -50.0900
  14   2.0000      -1.172388       -31.9023
  15   2.0000      -1.160078       -31.5673
  16   2.0000      -1.028751       -27.9937
  17   2.0000      -0.973711       -26.4960
  18   2.0000      -0.896489       -24.3947
  19   2.0000      -0.804770       -21.8989
  20   2.0000      -0.800499       -21.7827
  21   2.0000      -0.785414       -21.3722
  22   2.0000      -0.771873       -21.0037
  23   2.0000      -0.697880       -18.9903
  24   2.0000      -0.597437       -16.2571
  25   2.0000      -0.576555       -15.6889
  26   2.0000      -0.567615       -15.4456
  27   2.0000      -0.553938       -15.0734
  28   2.0000      -0.549327       -14.9479
  29   2.0000      -0.541055       -14.7228
  30   2.0000      -0.539440       -14.6789
  31   2.0000      -0.529883       -14.4188
  32   2.0000      -0.525432       -14.2977
  33   2.0000      -0.517897       -14.0927
  34   2.0000      -0.513026       -13.9601
  35   2.0000      -0.498034       -13.5522
  36   2.0000      -0.487689       -13.2707
  37   2.0000      -0.486703       -13.2439
  38   2.0000      -0.447238       -12.1700
  39   2.0000      -0.438121       -11.9219
  40   2.0000      -0.404799       -11.0151
  41   2.0000      -0.388868       -10.5816
  42   2.0000      -0.378708       -10.3052
  43   2.0000      -0.360334        -9.8052
  44   2.0000      -0.352009        -9.5787
  45   2.0000      -0.333114        -9.0645
  46   2.0000      -0.322695        -8.7810
  47   2.0000      -0.316502        -8.6125
  48   0.0000       0.023731         0.6457
  49   0.0000       0.034966         0.9515
  50   0.0000       0.036952         1.0055
  51   0.0000       0.044983         1.2240
  52   0.0000       0.053234         1.4486

MULLIKEN ATOMIC CHARGES
-----------------------
   0 Mo:    0.709377
   1 C :    0.796158
   2 C :   -0.236301
   3 H :    0.095974
   4 H :    0.095798
   5 H :    0.112737
   6 C :   -0.149270
   7 C :    0.016780
   8 N :   -0.634799
   9 O :   -0.581107
  10 O :   -0.475334
  11 H :    0.033546
  12 H :    0.048565
  13 H :    0.077584
  14 H :   -0.002900
  15 H :    0.021301
  16 H :    0.026981
  17 C :    0.133354
  18 C :   -0.061238
  19 H :    0.047542
  20 H :    0.006229
  21 H :    0.134886
  22 H :    0.072645
  23 C :   -0.593259
  24 H :    0.033680
  25 H :    0.086673
  26 H :    0.021361
  27 H :    0.163037
Sum of atomic charges:   -0.0000000

LOEWDIN ATOMIC CHARGES
----------------------
   0 Mo:    1.313658
   1 C :   -0.207304
   2 C :    0.024270
   3 H :   -0.006974
   4 H :   -0.009963
   5 H :   -0.011917
   6 C :    0.003744
   7 C :   -0.011443
   8 N :   -0.128315
   9 O :   -0.374988
  10 O :   -0.383791
  11 H :   -0.006792
  12 H :   -0.006344
  13 H :   -0.015237
  14 H :   -0.005696
  15 H :   -0.010864
  16 H :   -0.014883
  17 C :   -0.007920
  18 C :   -0.066235
  19 H :   -0.049293
  20 H :   -0.053526
  21 H :    0.011428
  22 H :    0.007229
  23 C :    0.081510
  24 H :   -0.013189
  25 H :   -0.008839
  26 H :   -0.025881
  27 H :   -0.022447

  Mayer bond orders larger than 0.100000
B(  0-Mo,  1-C ) :   0.9487 B(  0-Mo,  2-C ) :   0.1207 B(  0-Mo,  8-N ) :   1.4028
B(  0-Mo,  9-O ) :   0.8553 B(  0-Mo, 10-O ) :   0.8705 B(  0-Mo, 17-C ) :   1.0095
B(  0-Mo, 18-C ) :   0.3270 B(  0-Mo, 19-H ) :   0.1163 B(  0-Mo, 23-C ) :   0.1051
B(  1-C , 10-O ) :  -0.1873 B(  1-C , 18-C ) :   0.8201 B(  1-C , 23-C ) :   0.7843
B(  1-C , 27-H ) :   0.9571 B(  2-C ,  3-H ) :   1.0145 B(  2-C ,  4-H ) :   1.0077
B(  2-C ,  5-H ) :   1.0051 B(  2-C ,  8-N ) :   0.5653 B(  6-C , 10-O ) :   0.9215
B(  6-C , 11-H ) :   1.0430 B(  6-C , 12-H ) :   1.0268 B(  6-C , 13-H ) :   1.0110
B(  7-C ,  9-O ) :   0.8973 B(  7-C , 14-H ) :   1.0676 B(  7-C , 15-H ) :   1.0135
B(  7-C , 16-H ) :   0.9972 B( 10-O , 17-C ) :  -0.1983 B( 17-C , 18-C ) :   0.9321
B( 17-C , 19-H ) :   0.9865 B( 17-C , 20-H ) :   1.0302 B( 18-C , 21-H ) :   0.9957
B( 18-C , 22-H ) :   1.0661 B( 23-C , 24-H ) :   1.0371 B( 23-C , 25-H ) :   1.0428
B( 23-C , 26-H ) :   1.0157

MP2 TOTAL ENERGY:     -549.932389071 Eh
Dispersion correction           -0.032434097
FINAL SINGLE POINT ENERGY      -549.964823168176

DIPOLE MOMENT
-------------
                                X             Y             Z
Electronic contribution:     10.91232       0.79160       4.66568
Nuclear contribution   :    -12.16779      -0.65832      -4.35638
                        -----------------------------------------
Total Dipole Moment    :     -1.25547       0.13328       0.30930
                        -----------------------------------------
Magnitude (a.u.)       :      1.29986
Magnitude (Debye)      :      3.30397

Rotational constants in cm-1:     0.031161     0.027931     0.019091
Rotational constants in MHz :   934.171856   837.337056   572.342467

                             ****ORCA TERMINATED NORMALLY****
TOTAL RUN TIME: 0 days 0 hours 1 minutes 0 seconds 388 msec
