                         Program Version 4.2.0 -  RELEASE  -
|  1> #
|  2> # TMB20_I1 ri-DSD-BLYP/2013-D3BJ/Def2-TZVPPD
|  3> #
|  4> ! rijk ri-dsd-blyp/2013 d3bj def2-tzvppd def2/jk def2-tzvppd/c grid4 nofinalgrid
|  5>
|  6> *xyz 0 1
|  7> Re       0.721260    0.301703   -0.012347
|  8> C        1.851141    0.452958   -1.678261
|  9> C        1.971728    0.634914    1.425372
| 10> C        0.763580    2.214165   -0.101283
| 11> Br       1.710512   -2.064741    0.019177
| 12> O        0.816608    3.358474   -0.166463
| 13> O        2.493283    0.513036   -2.612271
| 14> O        2.652573    0.808904    2.320449
| 15> C       -1.780395   -0.133590    1.665167
| 16> C       -0.470905   -0.371203    1.638632
| 17> C       -2.365069    0.652857    0.526821
| 18> C       -3.493010   -0.159458   -0.075600
| 19> O       -3.300943   -1.161632   -0.733339
| 20> O       -4.693453    0.297769    0.229376
| 21> C       -1.280010    0.876972   -0.512116
| 22> O       -0.953000   -0.240509   -1.297416
| 23> H       -1.566319   -0.977006   -1.049921
| 24> C       -5.797043   -0.483161   -0.244906
| 25> H       -6.688437    0.024549    0.111717
| 26> H       -5.787691   -0.527184   -1.333247
| 27> H       -5.742358   -1.494851    0.155119
| 28> H       -0.050439   -0.962173    2.449658
| 29> H       -2.758296    1.619346    0.851818
| 30> H       -2.454065   -0.501260    2.435709
| 31> H       -1.435420    1.741704   -1.151672
| 32> *
| 33>
| 34> %maxcore 5000
| 35>
| 36> %pal
| 37> nprocs = 24
| 38> end
| 39>
| 40>
| 41>                          ****END OF INPUT****

CARTESIAN COORDINATES (ANGSTROEM)
---------------------------------
  Re     0.721260    0.301703   -0.012347
  C      1.851141    0.452958   -1.678261
  C      1.971728    0.634914    1.425372
  C      0.763580    2.214165   -0.101283
  Br     1.710512   -2.064741    0.019177
  O      0.816608    3.358474   -0.166463
  O      2.493283    0.513036   -2.612271
  O      2.652573    0.808904    2.320449
  C     -1.780395   -0.133590    1.665167
  C     -0.470905   -0.371203    1.638632
  C     -2.365069    0.652857    0.526821
  C     -3.493010   -0.159458   -0.075600
  O     -3.300943   -1.161632   -0.733339
  O     -4.693453    0.297769    0.229376
  C     -1.280010    0.876972   -0.512116
  O     -0.953000   -0.240509   -1.297416
  H     -1.566319   -0.977006   -1.049921
  C     -5.797043   -0.483161   -0.244906
  H     -6.688437    0.024549    0.111717
  H     -5.787691   -0.527184   -1.333247
  H     -5.742358   -1.494851    0.155119
  H     -0.050439   -0.962173    2.449658
  H     -2.758296    1.619346    0.851818
  H     -2.454065   -0.501260    2.435709
  H     -1.435420    1.741704   -1.151672

 Total Charge           Charge          ....    0
 Multiplicity           Mult            ....    1
 Number of Electrons    NEL             ....  160
 Basis Dimension        Dim             ....  825

ORBITAL ENERGIES
----------------

  NO   OCC          E(Eh)            E(eV)
   0   2.0000    -487.405485    -13262.9775
   1   2.0000     -64.157417     -1745.8121
   2   2.0000     -57.677872     -1569.4947
   3   2.0000     -57.676920     -1569.4688
   4   2.0000     -57.676714     -1569.4632
   5   2.0000     -20.162704      -548.6551
   6   2.0000     -20.154863      -548.4417
   7   2.0000     -20.144124      -548.1495
   8   2.0000     -20.134343      -547.8833
   9   2.0000     -20.131907      -547.8170
  10   2.0000     -20.073284      -546.2218
  11   2.0000     -11.034296      -300.2585
  12   2.0000     -11.018726      -299.8348
  13   2.0000     -11.018156      -299.8193
  14   2.0000     -11.016715      -299.7800
  15   2.0000     -10.967368      -298.4373
  16   2.0000     -10.933272      -297.5095
  17   2.0000     -10.904630      -296.7301
  18   2.0000     -10.857696      -295.4529
  19   2.0000     -10.840395      -294.9821
  20   2.0000      -9.377418      -255.1725
  21   2.0000      -7.065349      -192.2579
  22   2.0000      -7.061455      -192.1519
  23   2.0000      -7.060723      -192.1320
  24   2.0000      -3.563579       -96.9699
  25   2.0000      -2.941776       -80.0498
  26   2.0000      -2.940510       -80.0153
  27   2.0000      -2.939781       -79.9955
  28   2.0000      -2.935728       -79.8852
  29   2.0000      -2.935699       -79.8844
  30   2.0000      -2.025231       -55.1093
  31   2.0000      -2.021061       -54.9959
  32   2.0000      -2.011850       -54.7452
  33   2.0000      -1.403791       -38.1991
  34   2.0000      -1.396589       -38.0031
  35   2.0000      -1.385968       -37.7141
  36   2.0000      -1.383697       -37.6523
  37   2.0000      -1.332890       -36.2698
  38   2.0000      -1.280166       -34.8351
  39   2.0000      -1.032358       -28.0919
  40   2.0000      -0.932661       -25.3790
  41   2.0000      -0.897758       -24.4292
  42   2.0000      -0.876923       -23.8623
  43   2.0000      -0.838167       -22.8077
  44   2.0000      -0.767010       -20.8714
  45   2.0000      -0.750347       -20.4180
  46   2.0000      -0.744490       -20.2586
  47   2.0000      -0.736705       -20.0468
  48   2.0000      -0.713211       -19.4075
  49   2.0000      -0.680478       -18.5167
  50   2.0000      -0.669736       -18.2244
  51   2.0000      -0.665200       -18.1010
  52   2.0000      -0.643920       -17.5220
  53   2.0000      -0.642555       -17.4848
  54   2.0000      -0.634100       -17.2547
  55   2.0000      -0.625709       -17.0264
  56   2.0000      -0.609123       -16.5751
  57   2.0000      -0.608221       -16.5505
  58   2.0000      -0.604313       -16.4442
  59   2.0000      -0.600393       -16.3375
  60   2.0000      -0.596458       -16.2305
  61   2.0000      -0.582771       -15.8580
  62   2.0000      -0.578534       -15.7427
  63   2.0000      -0.572268       -15.5722
  64   2.0000      -0.556755       -15.1501
  65   2.0000      -0.541828       -14.7439
  66   2.0000      -0.534720       -14.5505
  67   2.0000      -0.507223       -13.8023
  68   2.0000      -0.490346       -13.3430
  69   2.0000      -0.482254       -13.1228
  70   2.0000      -0.448653       -12.2085
  71   2.0000      -0.442846       -12.0505
  72   2.0000      -0.411182       -11.1888
  73   2.0000      -0.395656       -10.7663
  74   2.0000      -0.384655       -10.4670
  75   2.0000      -0.367515       -10.0006
  76   2.0000      -0.352756        -9.5990
  77   2.0000      -0.332221        -9.0402
  78   2.0000      -0.318047        -8.6545
  79   2.0000      -0.302039        -8.2189
  80   0.0000      -0.012675        -0.3449
  81   0.0000       0.023095         0.6284
  82   0.0000       0.025950         0.7061
  83   0.0000       0.036312         0.9881
  84   0.0000       0.043465         1.1827

MULLIKEN ATOMIC CHARGES
-----------------------
   0 Re:    0.744830
   1 C :    0.409924
   2 C :    0.660466
   3 C :    0.033369
   4 Br:   -0.654272
   5 O :   -0.405892
   6 O :   -0.315872
   7 O :   -0.349395
   8 C :   -0.994261
   9 C :    0.155439
  10 C :    1.757710
  11 C :    0.298706
  12 O :   -0.655577
  13 O :   -0.306914
  14 C :   -0.170168
  15 O :   -0.447683
  16 H :    0.270270
  17 C :   -0.076425
  18 H :    0.052893
  19 H :    0.095923
  20 H :    0.107954
  21 H :   -0.135673
  22 H :    0.004898
  23 H :   -0.146431
  24 H :    0.066181
Sum of atomic charges:    0.0000000

LOEWDIN ATOMIC CHARGES
----------------------
   0 Re:    0.613617
   1 C :   -0.183915
   2 C :   -0.260645
   3 C :   -0.233152
   4 Br:    0.128380
   5 O :    0.123109
   6 O :    0.137247
   7 O :    0.145775
   8 C :   -0.042438
   9 C :   -0.098106
  10 C :   -0.108451
  11 C :   -0.390267
  12 O :    0.104516
  13 O :    0.016088
  14 C :   -0.140851
  15 O :    0.104155
  16 H :   -0.163200
  17 C :    0.192160
  18 H :    0.012206
  19 H :    0.014656
  20 H :    0.016161
  21 H :   -0.066291
  22 H :    0.053289
  23 H :    0.004001
  24 H :    0.021955

  Mayer bond orders larger than 0.100000
B(  0-Re,  1-C ) :   0.7532 B(  0-Re,  2-C ) :   1.0411 B(  0-Re,  3-C ) :   1.1927
B(  0-Re,  4-Br) :   0.3588 B(  0-Re,  9-C ) :   0.6526 B(  0-Re, 14-C ) :   0.6910
B(  0-Re, 15-O ) :   0.3797 B(  1-C ,  2-C ) :  -0.1011 B(  1-C ,  6-O ) :   2.2296
B(  2-C ,  7-O ) :   2.1753 B(  3-C ,  5-O ) :   2.0644 B(  3-C , 14-C ) :   0.2257
B(  8-C ,  9-C ) :   1.8099 B(  8-C , 10-C ) :  -0.1135 B(  8-C , 11-C ) :   0.5784
B(  8-C , 14-C ) :   0.4734 B(  8-C , 22-H ) :  -0.1026 B(  8-C , 23-H ) :   1.2737
B(  9-C , 21-H ) :   1.0902 B(  9-C , 23-H ) :  -0.1411 B( 10-C , 12-O ) :  -0.1186
B( 10-C , 14-C ) :   0.4875 B( 10-C , 22-H ) :   1.0393 B( 10-C , 23-H ) :  -0.2806
B( 10-C , 24-H ) :  -0.1127 B( 11-C , 12-O ) :   1.5037 B( 11-C , 13-O ) :   0.8672
B( 11-C , 14-C ) :   0.5006 B( 12-O , 14-C ) :   0.1164 B( 13-O , 17-C ) :   0.8043
B( 14-C , 15-O ) :   0.6248 B( 14-C , 24-H ) :   0.9978 B( 15-O , 16-H ) :   0.8865
B( 17-C , 18-H ) :   1.0604 B( 17-C , 19-H ) :   0.9911 B( 17-C , 20-H ) :   0.9863

MP2 TOTAL ENERGY:    -3450.326229522 Eh
Dispersion correction           -0.042168353
FINAL SINGLE POINT ENERGY     -3450.368397875634

DIPOLE MOMENT
-------------
                                X             Y             Z
Electronic contribution:    123.16609      30.11725      -3.27877
Nuclear contribution   :   -125.53088     -28.89018       3.09124
                        -----------------------------------------
Total Dipole Moment    :     -2.36478       1.22707      -0.18753
                        -----------------------------------------
Magnitude (a.u.)       :      2.67078
Magnitude (Debye)      :      6.78859

Rotational constants in cm-1:     0.016025     0.007116     0.006337
Rotational constants in MHz :   480.407323   213.341783   189.987107

                             ****ORCA TERMINATED NORMALLY****
TOTAL RUN TIME: 0 days 0 hours 1 minutes 35 seconds 631 msec
