                         Program Version 4.2.0 -  RELEASE  -
|  1> #
|  2> # TMB26_C1 ri-DSD-BLYP/2013-D3BJ/Def2-TZVPPD
|  3> #
|  4> ! rijk ri-dsd-blyp/2013 d3bj def2-tzvppd def2/jk def2-tzvppd/c grid4 nofinalgrid
|  5>
|  6> *xyz 0 1
|  7> C        2.167128    1.329895    0.039526
|  8> C        2.525644    0.739273   -1.166486
|  9> C        3.439975   -0.306708   -1.174383
| 10> C        3.999633   -0.766755    0.014468
| 11> C        3.640245   -0.158436    1.215781
| 12> C        2.734668    0.894978    1.231934
| 13> H        2.127840    1.087811   -2.109674
| 14> H        4.700013   -1.586902    0.006791
| 15> H        2.446371    1.320973    2.183519
| 16> C        1.181573    2.421289    0.068499
| 17> C        1.441057    3.589123    0.775147
| 18> C       -0.063177    2.327678   -0.606474
| 19> C        0.528793    4.632414    0.796916
| 20> H        2.386085    3.685262    1.294444
| 21> C       -0.980026    3.398239   -0.582106
| 22> C       -0.681931    4.545260    0.115481
| 23> H        0.768969    5.533734    1.348653
| 24> H       -1.927777    3.275890   -1.088947
| 25> H       -1.387173    5.365524    0.142831
| 26> C       -0.458921    1.154963   -1.244997
| 27> C       -0.929867    0.115196   -1.736149
| 28> H       -0.939302   -0.474790   -2.633558
| 29> Au      -1.934281   -0.752855   -0.093938
| 30> Cl      -0.307197   -2.360512   -0.181170
| 31> Cl      -3.051038   -1.907317    1.520981
| 32> Cl      -3.535590    0.885204   -0.082121
| 33> O        3.733505   -0.820421   -2.387318
| 34> O        4.122752   -0.537296    2.416831
| 35> C        4.611393   -1.919557   -2.452177
| 36> H        4.218896   -2.777901   -1.898414
| 37> H        4.691177   -2.180906   -3.505103
| 38> H        5.605429   -1.663635   -2.071314
| 39> C        4.983111   -1.650773    2.472584
| 40> H        5.218240   -1.797897    3.524384
| 41> H        4.497038   -2.550975    2.084317
| 42> H        5.911564   -1.470782    1.920934
| 43> *
| 44>
| 45> %maxcore 5000
| 46>
| 47> %pal
| 48> nprocs = 24
| 49> end
| 50>
| 51>
| 52>                          ****END OF INPUT****

CARTESIAN COORDINATES (ANGSTROEM)
---------------------------------
  C      2.167128    1.329895    0.039526
  C      2.525644    0.739273   -1.166486
  C      3.439975   -0.306708   -1.174383
  C      3.999633   -0.766755    0.014468
  C      3.640245   -0.158436    1.215781
  C      2.734668    0.894978    1.231934
  H      2.127840    1.087811   -2.109674
  H      4.700013   -1.586902    0.006791
  H      2.446371    1.320973    2.183519
  C      1.181573    2.421289    0.068499
  C      1.441057    3.589123    0.775147
  C     -0.063177    2.327678   -0.606474
  C      0.528793    4.632414    0.796916
  H      2.386085    3.685262    1.294444
  C     -0.980026    3.398239   -0.582106
  C     -0.681931    4.545260    0.115481
  H      0.768969    5.533734    1.348653
  H     -1.927777    3.275890   -1.088947
  H     -1.387173    5.365524    0.142831
  C     -0.458921    1.154963   -1.244997
  C     -0.929867    0.115196   -1.736149
  H     -0.939302   -0.474790   -2.633558
  Au    -1.934281   -0.752855   -0.093938
  Cl    -0.307197   -2.360512   -0.181170
  Cl    -3.051038   -1.907317    1.520981
  Cl    -3.535590    0.885204   -0.082121
  O      3.733505   -0.820421   -2.387318
  O      4.122752   -0.537296    2.416831
  C      4.611393   -1.919557   -2.452177
  H      4.218896   -2.777901   -1.898414
  H      4.691177   -2.180906   -3.505103
  H      5.605429   -1.663635   -2.071314
  C      4.983111   -1.650773    2.472584
  H      5.218240   -1.797897    3.524384
  H      4.497038   -2.550975    2.084317
  H      5.911564   -1.470782    1.920934

 Total Charge           Charge          ....    0
 Multiplicity           Mult            ....    1
 Number of Electrons    NEL             ....  196
 Basis Dimension        Dim             .... 1122

ORBITAL ENERGIES
----------------

  NO   OCC          E(Eh)            E(eV)
   0   2.0000    -103.607890     -2819.3140
   1   2.0000    -103.606592     -2819.2787
   2   2.0000    -103.598286     -2819.0527
   3   2.0000     -20.091630      -546.7210
   4   2.0000     -20.090337      -546.6859
   5   2.0000     -10.959116      -298.2127
   6   2.0000     -10.940745      -297.7128
   7   2.0000     -10.940612      -297.7092
   8   2.0000     -10.928244      -297.3726
   9   2.0000     -10.924612      -297.2738
  10   2.0000     -10.919064      -297.1228
  11   2.0000     -10.918673      -297.1122
  12   2.0000     -10.917443      -297.0787
  13   2.0000     -10.914692      -297.0039
  14   2.0000     -10.914156      -296.9893
  15   2.0000     -10.895723      -296.4877
  16   2.0000     -10.895203      -296.4735
  17   2.0000     -10.895182      -296.4730
  18   2.0000     -10.867915      -295.7310
  19   2.0000     -10.863089      -295.5997
  20   2.0000     -10.861667      -295.5610
  21   2.0000     -10.123443      -275.4729
  22   2.0000     -10.122014      -275.4340
  23   2.0000     -10.113614      -275.2054
  24   2.0000      -7.696720      -209.4384
  25   2.0000      -7.695341      -209.4009
  26   2.0000      -7.693564      -209.3525
  27   2.0000      -7.693377      -209.3474
  28   2.0000      -7.692089      -209.3124
  29   2.0000      -7.691904      -209.3073
  30   2.0000      -7.687088      -209.1763
  31   2.0000      -7.683564      -209.0804
  32   2.0000      -7.683289      -209.0729
  33   2.0000      -4.639248      -126.2404
  34   2.0000      -2.722156       -74.0736
  35   2.0000      -2.720853       -74.0382
  36   2.0000      -2.705234       -73.6132
  37   2.0000      -1.313752       -35.7490
  38   2.0000      -1.311239       -35.6806
  39   2.0000      -1.119480       -30.4626
  40   2.0000      -1.068326       -29.0706
  41   2.0000      -1.035254       -28.1707
  42   2.0000      -0.996284       -27.1103
  43   2.0000      -0.968948       -26.3664
  44   2.0000      -0.955513       -26.0008
  45   2.0000      -0.954061       -25.9613
  46   2.0000      -0.936726       -25.4896
  47   2.0000      -0.932058       -25.3626
  48   2.0000      -0.929978       -25.3060
  49   2.0000      -0.895083       -24.3564
  50   2.0000      -0.859525       -23.3889
  51   2.0000      -0.834982       -22.7210
  52   2.0000      -0.809298       -22.0221
  53   2.0000      -0.761898       -20.7323
  54   2.0000      -0.752737       -20.4830
  55   2.0000      -0.718601       -19.5541
  56   2.0000      -0.689888       -18.7728
  57   2.0000      -0.671221       -18.2649
  58   2.0000      -0.652983       -17.7686
  59   2.0000      -0.637911       -17.3584
  60   2.0000      -0.629338       -17.1252
  61   2.0000      -0.624847       -17.0030
  62   2.0000      -0.613932       -16.7060
  63   2.0000      -0.610342       -16.6083
  64   2.0000      -0.605023       -16.4635
  65   2.0000      -0.589518       -16.0416
  66   2.0000      -0.580358       -15.7923
  67   2.0000      -0.572939       -15.5905
  68   2.0000      -0.570411       -15.5217
  69   2.0000      -0.562796       -15.3145
  70   2.0000      -0.544620       -14.8199
  71   2.0000      -0.538933       -14.6651
  72   2.0000      -0.534709       -14.5502
  73   2.0000      -0.523071       -14.2335
  74   2.0000      -0.519357       -14.1324
  75   2.0000      -0.514395       -13.9974
  76   2.0000      -0.508829       -13.8460
  77   2.0000      -0.500318       -13.6143
  78   2.0000      -0.494764       -13.4632
  79   2.0000      -0.487495       -13.2654
  80   2.0000      -0.466436       -12.6924
  81   2.0000      -0.461648       -12.5621
  82   2.0000      -0.457089       -12.4380
  83   2.0000      -0.454571       -12.3695
  84   2.0000      -0.426868       -11.6157
  85   2.0000      -0.423549       -11.5254
  86   2.0000      -0.418458       -11.3868
  87   2.0000      -0.395403       -10.7595
  88   2.0000      -0.389065       -10.5870
  89   2.0000      -0.379786       -10.3345
  90   2.0000      -0.363607        -9.8942
  91   2.0000      -0.361811        -9.8454
  92   2.0000      -0.356669        -9.7055
  93   2.0000      -0.355791        -9.6816
  94   2.0000      -0.349126        -9.5002
  95   2.0000      -0.343521        -9.3477
  96   2.0000      -0.314164        -8.5488
  97   2.0000      -0.291239        -7.9250
  98   0.0000      -0.080290        -2.1848
  99   0.0000      -0.011359        -0.3091
 100   0.0000       0.019629         0.5341
 101   0.0000       0.026859         0.7309
 102   0.0000       0.031913         0.8684

MULLIKEN ATOMIC CHARGES
-----------------------
   0 C :    1.580103
   1 C :   -0.700439
   2 C :    0.430851
   3 C :    0.170971
   4 C :    0.442410
   5 C :   -0.681975
   6 H :   -0.104432
   7 H :   -0.161716
   8 H :   -0.089041
   9 C :    0.519100
  10 C :    0.005001
  11 C :    0.371036
  12 C :   -0.129772
  13 H :   -0.039608
  14 C :   -0.525005
  15 C :    0.051716
  16 H :   -0.026917
  17 H :   -0.046883
  18 H :   -0.026522
  19 C :    1.088963
  20 C :   -0.617680
  21 H :    0.059774
  22 Au:    0.566586
  23 Cl:   -0.507693
  24 Cl:   -0.401425
  25 Cl:   -0.540002
  26 O :   -0.463112
  27 O :   -0.459494
  28 C :   -0.125435
  29 H :    0.097393
  30 H :    0.036825
  31 H :    0.102714
  32 C :   -0.120802
  33 H :    0.037372
  34 H :    0.109856
  35 H :    0.097282
Sum of atomic charges:    0.0000000

LOEWDIN ATOMIC CHARGES
----------------------
   0 C :   -0.137119
   1 C :    0.109786
   2 C :   -0.208699
   3 C :    0.131697
   4 C :   -0.207913
   5 C :    0.119306
   6 H :    0.024262
   7 H :   -0.015020
   8 H :    0.025418
   9 C :   -0.069381
  10 C :    0.077096
  11 C :   -0.158413
  12 C :    0.070406
  13 H :    0.018947
  14 C :    0.078558
  15 C :    0.045810
  16 H :    0.014469
  17 H :    0.003916
  18 H :    0.008532
  19 C :   -0.028382
  20 C :   -0.057009
  21 H :   -0.038027
  22 Au:    0.254283
  23 Cl:   -0.089161
  24 Cl:   -0.144741
  25 Cl:   -0.071952
  26 O :   -0.050028
  27 O :   -0.047941
  28 C :    0.131526
  29 H :    0.015022
  30 H :    0.012308
  31 H :    0.011796
  32 C :    0.131654
  33 H :    0.012637
  34 H :    0.015062
  35 H :    0.011296

  Mayer bond orders larger than 0.100000
B(  0-C ,  1-C ) :   0.1302 B(  0-C ,  3-C ) :  -0.2532 B(  0-C ,  4-C ) :  -0.1584
B(  0-C ,  5-C ) :   0.3574 B(  0-C ,  6-H ) :  -0.4208 B(  0-C ,  8-H ) :  -0.3089
B(  0-C ,  9-C ) :  -1.3996 B(  0-C , 10-C ) :  -0.3024 B(  0-C , 11-C ) :  -0.3786
B(  0-C , 12-C ) :  -0.2240 B(  0-C , 14-C ) :  -0.3000 B(  0-C , 15-C ) :   0.1169
B(  0-C , 19-C ) :   0.3524 B(  1-C ,  2-C ) :   1.3534 B(  1-C ,  3-C ) :  -0.1687
B(  1-C ,  5-C ) :   0.2061 B(  1-C ,  6-H ) :   1.2633 B(  1-C ,  9-C ) :  -0.1089
B(  1-C , 10-C ) :   0.4590 B(  1-C , 12-C ) :  -0.1698 B(  1-C , 14-C ) :  -0.2077
B(  1-C , 15-C ) :   0.1104 B(  1-C , 19-C ) :   0.1250 B(  1-C , 26-O ) :  -0.1149
B(  2-C ,  3-C ) :   1.1619 B(  2-C ,  4-C ) :   0.1863 B(  2-C ,  7-H ) :  -0.1481
B(  2-C ,  9-C ) :  -0.1163 B(  2-C , 10-C ) :  -0.2410 B(  2-C , 12-C ) :   0.1223
B(  2-C , 14-C ) :   0.1523 B(  2-C , 26-O ) :   0.7940 B(  3-C ,  4-C ) :   1.1567
B(  3-C ,  5-C ) :  -0.1566 B(  3-C ,  7-H ) :   1.1344 B(  3-C ,  9-C ) :   0.3115
B(  3-C , 10-C ) :   0.1619 B(  4-C ,  5-C ) :   1.2361 B(  4-C ,  7-H ) :  -0.1633
B(  4-C , 10-C ) :  -0.1200 B(  4-C , 14-C ) :   0.1397 B(  4-C , 27-O ) :   0.8494
B(  5-C ,  8-H ) :   1.2374 B(  5-C ,  9-C ) :  -0.3457 B(  5-C , 10-C ) :   0.3057
B(  5-C , 11-C ) :  -0.1376 B(  5-C , 14-C ) :  -0.1316 B(  5-C , 19-C ) :   0.1185
B(  5-C , 27-O ) :  -0.1507 B(  9-C , 10-C ) :   0.5227 B(  9-C , 11-C ) :   0.4618
B(  9-C , 12-C ) :   0.1481 B(  9-C , 13-H ) :  -0.1653 B(  9-C , 14-C ) :   0.2578
B(  9-C , 19-C ) :  -0.5872 B(  9-C , 20-C ) :   0.2477 B( 10-C , 11-C ) :  -0.2405
B( 10-C , 12-C ) :   1.1730 B( 10-C , 13-H ) :   1.1339 B( 10-C , 19-C ) :   0.1690
B( 11-C , 14-C ) :   1.4461 B( 11-C , 15-C ) :  -0.2993 B( 11-C , 19-C ) :  -0.1028
B( 11-C , 20-C ) :  -1.0215 B( 12-C , 13-H ) :  -0.1302 B( 12-C , 14-C ) :   0.1754
B( 12-C , 15-C ) :   1.1262 B( 12-C , 16-H ) :   1.1200 B( 12-C , 18-H ) :  -0.1299
B( 14-C , 15-C ) :   1.1247 B( 14-C , 17-H ) :   1.1494 B( 14-C , 18-H ) :  -0.1053
B( 14-C , 19-C ) :  -0.6409 B( 14-C , 20-C ) :   0.1171 B( 15-C , 16-H ) :  -0.1333
B( 15-C , 17-H ) :  -0.1789 B( 15-C , 18-H ) :   1.1246 B( 19-C , 20-C ) :   1.4471
B( 19-C , 22-Au) :  -0.2798 B( 19-C , 23-Cl) :  -0.4483 B( 19-C , 25-Cl) :  -0.1538
B( 20-C , 21-H ) :   0.9085 B( 20-C , 22-Au) :   1.0024 B( 20-C , 23-Cl) :   0.3228
B( 22-Au, 23-Cl) :   0.7861 B( 22-Au, 24-Cl) :   0.7479 B( 22-Au, 25-Cl) :   0.8367
B( 23-Cl, 25-Cl) :   0.1069 B( 26-O , 28-C ) :   0.8943 B( 27-O , 32-C ) :   0.8787
B( 28-C , 29-H ) :   0.9924 B( 28-C , 30-H ) :   1.0928 B( 28-C , 31-H ) :   0.9876
B( 32-C , 33-H ) :   1.0924 B( 32-C , 34-H ) :   0.9943 B( 32-C , 35-H ) :   0.9860

MP2 TOTAL ENERGY:    -2283.404549895 Eh
Dispersion correction           -0.056055324
FINAL SINGLE POINT ENERGY     -2283.460605218644

DIPOLE MOMENT
-------------
                                X             Y             Z
Electronic contribution:   -300.12055    -110.39593     -12.52389
Nuclear contribution   :    303.49748     112.54151      11.37787
                        -----------------------------------------
Total Dipole Moment    :      3.37692       2.14558      -1.14602
                        -----------------------------------------
Magnitude (a.u.)       :      4.16179
Magnitude (Debye)      :     10.57843

Rotational constants in cm-1:     0.007370     0.004054     0.003244
Rotational constants in MHz :   220.947502   121.548879    97.259691

                             ****ORCA TERMINATED NORMALLY****
TOTAL RUN TIME: 0 days 0 hours 3 minutes 15 seconds 435 msec
