                         Program Version 4.2.0 -  RELEASE  -
|  1> #
|  2> # TMB28_T1 ri-DSD-BLYP/2013-D3BJ/Def2-TZVPPD
|  3> #
|  4> ! rijk ri-dsd-blyp/2013 d3bj def2-tzvppd def2/jk def2-tzvppd/c grid4 nofinalgrid
|  5>
|  6> *xyz 0 1
|  7> C       -0.472087   -1.270184   -0.544262
|  8> C       -1.371263   -0.408913   -0.410763
|  9> C       -0.283188   -2.679486   -0.928311
| 10> H       -1.250337   -3.132270   -1.147533
| 11> H        0.355340   -2.736203   -1.811412
| 12> H        0.207850   -3.220295   -0.118359
| 13> C       -2.087605    0.860649   -0.268000
| 14> O       -3.384272    0.602181    0.322954
| 15> C       -3.916162   -0.562532   -0.037107
| 16> O       -3.286397   -1.359772   -0.698080
| 17> C       -1.360806    1.791956    0.779385
| 18> O       -0.796250    2.763376    0.375084
| 19> C       -1.472551    1.401357    2.216606
| 20> H       -1.203914    0.352090    2.355444
| 21> H       -0.810137    2.031512    2.804683
| 22> H       -2.503869    1.535124    2.549793
| 23> C       -5.307153   -0.755812    0.455050
| 24> H       -5.663745   -1.741165    0.170882
| 25> H       -5.328847   -0.642840    1.539841
| 26> H       -5.952574    0.015643    0.032531
| 27> C       -2.259938    1.568911   -1.595082
| 28> H       -2.813189    2.495499   -1.446777
| 29> H       -1.275651    1.804221   -1.997337
| 30> H       -2.786554    0.924255   -2.298279
| 31> Au       1.278819   -0.204328   -0.045979
| 32> Cl       1.126476   -1.118462    2.051374
| 33> Cl       3.319842    0.694072    0.431966
| 34> Cl       1.372434    0.585236   -2.189571
| 35> *
| 36>
| 37> %maxcore 5000
| 38>
| 39> %pal
| 40> nprocs = 24
| 41> end
| 42>
| 43>
| 44>                          ****END OF INPUT****

CARTESIAN COORDINATES (ANGSTROEM)
---------------------------------
  C     -0.472087   -1.270184   -0.544262
  C     -1.371263   -0.408913   -0.410763
  C     -0.283188   -2.679486   -0.928311
  H     -1.250337   -3.132270   -1.147533
  H      0.355340   -2.736203   -1.811412
  H      0.207850   -3.220295   -0.118359
  C     -2.087605    0.860649   -0.268000
  O     -3.384272    0.602181    0.322954
  C     -3.916162   -0.562532   -0.037107
  O     -3.286397   -1.359772   -0.698080
  C     -1.360806    1.791956    0.779385
  O     -0.796250    2.763376    0.375084
  C     -1.472551    1.401357    2.216606
  H     -1.203914    0.352090    2.355444
  H     -0.810137    2.031512    2.804683
  H     -2.503869    1.535124    2.549793
  C     -5.307153   -0.755812    0.455050
  H     -5.663745   -1.741165    0.170882
  H     -5.328847   -0.642840    1.539841
  H     -5.952574    0.015643    0.032531
  C     -2.259938    1.568911   -1.595082
  H     -2.813189    2.495499   -1.446777
  H     -1.275651    1.804221   -1.997337
  H     -2.786554    0.924255   -2.298279
  Au     1.278819   -0.204328   -0.045979
  Cl     1.126476   -1.118462    2.051374
  Cl     3.319842    0.694072    0.431966
  Cl     1.372434    0.585236   -2.189571

 Total Charge           Charge          ....    0
 Multiplicity           Mult            ....    1
 Number of Electrons    NEL             ....  160
 Basis Dimension        Dim             ....  869

ORBITAL ENERGIES
----------------

  NO   OCC          E(Eh)            E(eV)
   0   2.0000    -103.616766     -2819.5556
   1   2.0000    -103.614645     -2819.4978
   2   2.0000    -103.601201     -2819.1320
   3   2.0000     -20.162412      -548.6471
   4   2.0000     -20.109384      -547.2042
   5   2.0000     -20.082553      -546.4740
   6   2.0000     -11.065054      -301.0954
   7   2.0000     -11.008253      -299.5498
   8   2.0000     -10.997979      -299.2702
   9   2.0000     -10.975440      -298.6569
  10   2.0000     -10.937366      -297.6209
  11   2.0000     -10.912552      -296.9456
  12   2.0000     -10.896811      -296.5173
  13   2.0000     -10.879275      -296.0401
  14   2.0000     -10.877579      -295.9940
  15   2.0000     -10.132363      -275.7156
  16   2.0000     -10.130107      -275.6542
  17   2.0000     -10.116529      -275.2848
  18   2.0000      -7.705636      -209.6810
  19   2.0000      -7.703450      -209.6215
  20   2.0000      -7.702497      -209.5956
  21   2.0000      -7.702320      -209.5908
  22   2.0000      -7.700188      -209.5328
  23   2.0000      -7.699989      -209.5274
  24   2.0000      -7.689978      -209.2549
  25   2.0000      -7.686517      -209.1608
  26   2.0000      -7.686248      -209.1534
  27   2.0000      -4.648147      -126.4825
  28   2.0000      -2.730625       -74.3041
  29   2.0000      -2.729558       -74.2750
  30   2.0000      -2.714482       -73.8648
  31   2.0000      -1.421172       -38.6721
  32   2.0000      -1.324364       -36.0378
  33   2.0000      -1.310146       -35.6509
  34   2.0000      -1.077138       -29.3104
  35   2.0000      -1.018262       -27.7083
  36   2.0000      -0.972641       -26.4669
  37   2.0000      -0.964420       -26.2432
  38   2.0000      -0.953241       -25.9390
  39   2.0000      -0.944883       -25.7116
  40   2.0000      -0.936100       -25.4726
  41   2.0000      -0.914254       -24.8781
  42   2.0000      -0.857208       -23.3258
  43   2.0000      -0.797929       -21.7127
  44   2.0000      -0.751968       -20.4621
  45   2.0000      -0.701988       -19.1021
  46   2.0000      -0.674767       -18.3613
  47   2.0000      -0.665374       -18.1057
  48   2.0000      -0.639883       -17.4121
  49   2.0000      -0.625913       -17.0320
  50   2.0000      -0.610878       -16.6228
  51   2.0000      -0.598404       -16.2834
  52   2.0000      -0.592207       -16.1148
  53   2.0000      -0.581175       -15.8146
  54   2.0000      -0.577198       -15.7064
  55   2.0000      -0.567996       -15.4560
  56   2.0000      -0.562153       -15.2970
  57   2.0000      -0.555607       -15.1188
  58   2.0000      -0.553337       -15.0571
  59   2.0000      -0.548361       -14.9217
  60   2.0000      -0.541607       -14.7379
  61   2.0000      -0.540689       -14.7129
  62   2.0000      -0.527963       -14.3666
  63   2.0000      -0.524535       -14.2733
  64   2.0000      -0.522729       -14.2242
  65   2.0000      -0.507662       -13.8142
  66   2.0000      -0.492831       -13.4106
  67   2.0000      -0.485189       -13.2027
  68   2.0000      -0.477307       -12.9882
  69   2.0000      -0.443408       -12.0657
  70   2.0000      -0.427638       -11.6366
  71   2.0000      -0.417655       -11.3650
  72   2.0000      -0.406726       -11.0676
  73   2.0000      -0.399585       -10.8733
  74   2.0000      -0.387163       -10.5352
  75   2.0000      -0.369663       -10.0590
  76   2.0000      -0.364912        -9.9298
  77   2.0000      -0.364236        -9.9114
  78   2.0000      -0.359272        -9.7763
  79   2.0000      -0.350183        -9.5290
  80   0.0000      -0.068885        -1.8744
  81   0.0000       0.006086         0.1656
  82   0.0000       0.019206         0.5226
  83   0.0000       0.036963         1.0058
  84   0.0000       0.040920         1.1135

MULLIKEN ATOMIC CHARGES
-----------------------
   0 C :   -0.612217
   1 C :    0.794046
   2 C :   -0.884043
   3 H :    0.048496
   4 H :    0.150315
   5 H :    0.155499
   6 C :    3.407390
   7 O :   -0.465020
   8 C :    0.767320
   9 O :   -0.602708
  10 C :   -0.067388
  11 O :   -0.540680
  12 C :   -0.395188
  13 H :    0.138604
  14 H :    0.057665
  15 H :    0.092530
  16 C :   -0.558285
  17 H :    0.110649
  18 H :    0.104732
  19 H :    0.116967
  20 C :   -0.782206
  21 H :    0.066565
  22 H :    0.081691
  23 H :    0.120798
  24 Au:    0.325276
  25 Cl:   -0.587440
  26 Cl:   -0.479382
  27 Cl:   -0.563986
Sum of atomic charges:   -0.0000000

LOEWDIN ATOMIC CHARGES
----------------------
   0 C :   -0.292079
   1 C :    0.072031
   2 C :    0.140735
   3 H :   -0.002292
   4 H :   -0.000697
   5 H :   -0.012906
   6 C :   -0.315612
   7 O :    0.054557
   8 C :   -0.395388
   9 O :    0.105361
  10 C :   -0.298241
  11 O :    0.113229
  12 C :    0.213435
  13 H :   -0.046077
  14 H :    0.011853
  15 H :    0.005925
  16 C :    0.266225
  17 H :    0.008892
  18 H :    0.013555
  19 H :    0.014467
  20 C :    0.226474
  21 H :    0.017548
  22 H :   -0.020906
  23 H :    0.013251
  24 Au:    0.302931
  25 Cl:   -0.029169
  26 Cl:   -0.136023
  27 Cl:   -0.031081

  Mayer bond orders larger than 0.100000
B(  0-C ,  1-C ) :  -0.7761 B(  0-C ,  2-C ) :   1.1662 B(  0-C ,  4-H ) :  -0.1172
B(  0-C ,  5-H ) :  -0.1021 B(  0-C ,  6-C ) :  -0.8553 B(  0-C ,  9-O ) :   0.1227
B(  0-C , 24-Au) :   1.4451 B(  0-C , 25-Cl) :   0.4816 B(  0-C , 27-Cl) :   0.6019
B(  1-C ,  2-C ) :  -0.6955 B(  1-C ,  3-H ) :  -0.1646 B(  1-C ,  6-C ) :  -0.5027
B(  1-C ,  9-O ) :  -0.1307 B(  1-C , 10-C ) :   1.0063 B(  1-C , 12-C ) :   0.2523
B(  1-C , 20-C ) :   0.4211 B(  1-C , 24-Au) :  -0.8610 B(  1-C , 25-Cl) :  -0.7638
B(  1-C , 27-Cl) :  -0.9096 B(  2-C ,  3-H ) :   1.0896 B(  2-C ,  4-H ) :   0.9981
B(  2-C ,  5-H ) :   0.9994 B(  2-C ,  6-C ) :   0.1096 B(  6-C ,  7-O ) :   0.3691
B(  6-C ,  8-C ) :  -0.1194 B(  6-C , 10-C ) :  -0.7172 B(  6-C , 12-C ) :  -0.3012
B(  6-C , 20-C ) :   0.4442 B(  6-C , 24-Au) :  -0.2906 B(  7-O ,  8-C ) :   1.1019
B(  7-O , 10-C ) :   0.1164 B(  7-O , 16-C ) :  -0.1117 B(  7-O , 20-C ) :   0.1291
B(  8-C ,  9-O ) :   1.7414 B(  8-C , 16-C ) :   0.9969 B(  9-O , 16-C ) :  -0.1041
B( 10-C , 11-O ) :   1.7464 B( 10-C , 12-C ) :   1.3430 B( 12-C , 13-H ) :   0.9428
B( 12-C , 14-H ) :   1.0340 B( 12-C , 15-H ) :   0.9565 B( 16-C , 17-H ) :   1.0252
B( 16-C , 18-H ) :   0.9849 B( 16-C , 19-H ) :   0.9832 B( 20-C , 21-H ) :   1.0126
B( 20-C , 22-H ) :   0.9703 B( 20-C , 23-H ) :   1.0025 B( 24-Au, 25-Cl) :   0.9660
B( 24-Au, 26-Cl) :   0.6923 B( 24-Au, 27-Cl) :   0.9436 B( 25-Cl, 27-Cl) :   0.1083

MP2 TOTAL ENERGY:    -2090.917783941 Eh
Dispersion correction           -0.042304146
FINAL SINGLE POINT ENERGY     -2090.960088086740

DIPOLE MOMENT
-------------
                                X             Y             Z
Electronic contribution:    195.96723     -27.75880      -6.40363
Nuclear contribution   :   -200.70985      26.65253       6.49371
                        -----------------------------------------
Total Dipole Moment    :     -4.74262      -1.10627       0.09008
                        -----------------------------------------
Magnitude (a.u.)       :      4.87077
Magnitude (Debye)      :     12.38050

Rotational constants in cm-1:     0.016870     0.006757     0.006678
Rotational constants in MHz :   505.750873   202.581775   200.209050

                             ****ORCA TERMINATED NORMALLY****
TOTAL RUN TIME: 0 days 0 hours 1 minutes 51 seconds 688 msec
