                         Program Version 4.2.0 -  RELEASE  -
|  1> #
|  2> # TMB29_C2 ri-DSD-BLYP/2013-D3BJ/Def2-TZVPPD
|  3> #
|  4> ! rijk ri-dsd-blyp/2013 d3bj def2-tzvppd def2/jk def2-tzvppd/c grid4 nofinalgrid
|  5>
|  6> *xyz 1 1
|  7> C        0.315194   -1.265840   -0.205097
|  8> C        1.442343   -0.626838    0.044790
|  9> C        0.309905   -2.700146   -0.639207
| 10> H        1.304587   -3.137496   -0.733589
| 11> H       -0.263876   -3.299051    0.071387
| 12> H       -0.202915   -2.796953   -1.598442
| 13> C        1.798588    0.767906    0.516696
| 14> O        3.282693    0.709723    0.495405
| 15> C        3.659486   -0.471899    0.173285
| 16> O        2.736849   -1.295199   -0.102354
| 17> C        1.344136    1.838147   -0.506262
| 18> O        0.287215    2.374668   -0.320274
| 19> C        2.219880    2.103298   -1.689301
| 20> H        2.470349    1.173144   -2.206730
| 21> H        1.702341    2.771806   -2.372494
| 22> H        3.157528    2.564787   -1.369834
| 23> C        5.078697   -0.839761    0.144564
| 24> H        5.213504   -1.795905   -0.353509
| 25> H        5.652959   -0.054437   -0.347617
| 26> H        5.438400   -0.910855    1.175413
| 27> C        1.364152    1.101522    1.920814
| 28> H        1.754676    2.072052    2.227431
| 29> H        0.275994    1.149047    1.931402
| 30> H        1.690154    0.330993    2.618895
| 31> Au      -1.496985   -0.316099   -0.013075
| 32> P       -3.546234    0.682452    0.150815
| 33> H       -3.831804    1.712524   -0.762172
| 34> H       -4.687337   -0.122280   -0.012331
| 35> H       -3.867595    1.325764    1.359005
| 36> *
| 37>
| 38> %maxcore 5000
| 39>
| 40> %pal
| 41> nprocs = 24
| 42> end
| 43>
| 44>
| 45>                          ****END OF INPUT****

CARTESIAN COORDINATES (ANGSTROEM)
---------------------------------
  C      0.315194   -1.265840   -0.205097
  C      1.442343   -0.626838    0.044790
  C      0.309905   -2.700146   -0.639207
  H      1.304587   -3.137496   -0.733589
  H     -0.263876   -3.299051    0.071387
  H     -0.202915   -2.796953   -1.598442
  C      1.798588    0.767906    0.516696
  O      3.282693    0.709723    0.495405
  C      3.659486   -0.471899    0.173285
  O      2.736849   -1.295199   -0.102354
  C      1.344136    1.838147   -0.506262
  O      0.287215    2.374668   -0.320274
  C      2.219880    2.103298   -1.689301
  H      2.470349    1.173144   -2.206730
  H      1.702341    2.771806   -2.372494
  H      3.157528    2.564787   -1.369834
  C      5.078697   -0.839761    0.144564
  H      5.213504   -1.795905   -0.353509
  H      5.652959   -0.054437   -0.347617
  H      5.438400   -0.910855    1.175413
  C      1.364152    1.101522    1.920814
  H      1.754676    2.072052    2.227431
  H      0.275994    1.149047    1.931402
  H      1.690154    0.330993    2.618895
  Au    -1.496985   -0.316099   -0.013075
  P     -3.546234    0.682452    0.150815
  H     -3.831804    1.712524   -0.762172
  H     -4.687337   -0.122280   -0.012331
  H     -3.867595    1.325764    1.359005

 Total Charge           Charge          ....    1
 Multiplicity           Mult            ....    1
 Number of Electrons    NEL             ....  126
 Basis Dimension        Dim             ....  815

ORBITAL ENERGIES
----------------

  NO   OCC          E(Eh)            E(eV)
   0   2.0000     -79.069107     -2151.5798
   1   2.0000     -20.300931      -552.4164
   2   2.0000     -20.296436      -552.2941
   3   2.0000     -20.173920      -548.9603
   4   2.0000     -11.215208      -305.1813
   5   2.0000     -11.097205      -301.9703
   6   2.0000     -11.089944      -301.7727
   7   2.0000     -11.051137      -300.7167
   8   2.0000     -11.030855      -300.1648
   9   2.0000     -10.984209      -298.8955
  10   2.0000     -10.980621      -298.7979
  11   2.0000     -10.979303      -298.7620
  12   2.0000     -10.955246      -298.1074
  13   2.0000      -7.308262      -198.8679
  14   2.0000      -5.300002      -144.2204
  15   2.0000      -5.299979      -144.2198
  16   2.0000      -5.298524      -144.1802
  17   2.0000      -4.643319      -126.3511
  18   2.0000      -2.734340       -74.4052
  19   2.0000      -2.721284       -74.0499
  20   2.0000      -2.720734       -74.0349
  21   2.0000      -1.592071       -43.3224
  22   2.0000      -1.470700       -40.0198
  23   2.0000      -1.413075       -38.4517
  24   2.0000      -1.182798       -32.1856
  25   2.0000      -1.096252       -29.8305
  26   2.0000      -1.085032       -29.5252
  27   2.0000      -1.050828       -28.5945
  28   2.0000      -0.987224       -26.8637
  29   2.0000      -0.949440       -25.8356
  30   2.0000      -0.939015       -25.5519
  31   2.0000      -0.931815       -25.3560
  32   2.0000      -0.878436       -23.9035
  33   2.0000      -0.858327       -23.3563
  34   2.0000      -0.810408       -22.0523
  35   2.0000      -0.775130       -21.0924
  36   2.0000      -0.739798       -20.1309
  37   2.0000      -0.711417       -19.3586
  38   2.0000      -0.705682       -19.2026
  39   2.0000      -0.700457       -19.0604
  40   2.0000      -0.693517       -18.8716
  41   2.0000      -0.685825       -18.6622
  42   2.0000      -0.678817       -18.4715
  43   2.0000      -0.671838       -18.2816
  44   2.0000      -0.666636       -18.1401
  45   2.0000      -0.645189       -17.5565
  46   2.0000      -0.641156       -17.4468
  47   2.0000      -0.637674       -17.3520
  48   2.0000      -0.634637       -17.2693
  49   2.0000      -0.626575       -17.0500
  50   2.0000      -0.618792       -16.8382
  51   2.0000      -0.616254       -16.7691
  52   2.0000      -0.608756       -16.5651
  53   2.0000      -0.593360       -16.1462
  54   2.0000      -0.582284       -15.8448
  55   2.0000      -0.547071       -14.8866
  56   2.0000      -0.533380       -14.5140
  57   2.0000      -0.530731       -14.4419
  58   2.0000      -0.529622       -14.4118
  59   2.0000      -0.505385       -13.7522
  60   2.0000      -0.489406       -13.3174
  61   2.0000      -0.442699       -12.0465
  62   2.0000      -0.439466       -11.9585
  63   0.0000      -0.108622        -2.9558
  64   0.0000      -0.079119        -2.1529
  65   0.0000      -0.076657        -2.0860
  66   0.0000      -0.065646        -1.7863
  67   0.0000      -0.057693        -1.5699

MULLIKEN ATOMIC CHARGES
-----------------------
   0 C :    0.302936
   1 C :   -0.857879
   2 C :   -0.617447
   3 H :    0.015097
   4 H :    0.140159
   5 H :    0.134162
   6 C :    3.230195
   7 O :   -0.334183
   8 C :    0.925631
   9 O :   -0.373770
  10 C :    0.076393
  11 O :   -0.543238
  12 C :   -0.474294
  13 H :    0.068536
  14 H :    0.103951
  15 H :    0.103850
  16 C :   -0.745684
  17 H :    0.134679
  18 H :    0.127253
  19 H :    0.143237
  20 C :   -0.719139
  21 H :    0.059829
  22 H :   -0.001566
  23 H :    0.112936
  24 Au:   -0.254770
  25 P :    0.049920
  26 H :    0.070929
  27 H :    0.057507
  28 H :    0.064770
Sum of atomic charges:    1.0000000

LOEWDIN ATOMIC CHARGES
----------------------
   0 C :   -0.246431
   1 C :   -0.173808
   2 C :    0.091839
   3 H :   -0.017677
   4 H :   -0.012694
   5 H :   -0.013962
   6 C :   -0.249057
   7 O :    0.133746
   8 C :   -0.255427
   9 O :    0.154893
  10 C :   -0.298749
  11 O :    0.066215
  12 C :    0.240442
  13 H :    0.009412
  14 H :    0.012531
  15 H :    0.011796
  16 C :    0.307757
  17 H :    0.025324
  18 H :    0.029700
  19 H :    0.036687
  20 C :    0.230588
  21 H :    0.020462
  22 H :   -0.011073
  23 H :    0.017948
  24 Au:    0.549010
  25 P :    0.847555
  26 H :   -0.166454
  27 H :   -0.171293
  28 H :   -0.169280

  Mayer bond orders larger than 0.100000
B(  0-C ,  1-C ) :   0.7879 B(  0-C ,  2-C ) :   0.8736 B(  0-C ,  9-O ) :   0.1487
B(  0-C , 10-C ) :   0.1445 B(  0-C , 24-Au) :   1.1510 B(  1-C ,  6-C ) :  -1.1596
B(  1-C ,  9-O ) :   0.7216 B(  1-C , 10-C ) :   0.9120 B(  1-C , 12-C ) :   0.1734
B(  1-C , 20-C ) :   0.3215 B(  1-C , 24-Au) :  -0.2907 B(  2-C ,  3-H ) :   1.0321
B(  2-C ,  4-H ) :   0.9954 B(  2-C ,  5-H ) :   0.9998 B(  2-C , 24-Au) :   0.1460
B(  6-C ,  7-O ) :   0.6133 B(  6-C ,  8-C ) :  -0.1876 B(  6-C ,  9-O ) :  -0.1090
B(  6-C , 10-C ) :  -0.5914 B(  6-C , 12-C ) :  -0.1904 B(  6-C , 16-C ) :  -0.1008
B(  6-C , 20-C ) :   0.5023 B(  6-C , 23-H ) :  -0.1173 B(  7-O ,  8-C ) :   1.2708
B(  8-C ,  9-O ) :   1.2230 B(  8-C , 16-C ) :   1.1202 B(  9-O , 16-C ) :  -0.1274
B( 10-C , 11-O ) :   1.6204 B( 10-C , 12-C ) :   1.1556 B( 12-C , 13-H ) :   0.9676
B( 12-C , 14-H ) :   1.0391 B( 12-C , 15-H ) :   0.9814 B( 16-C , 17-H ) :   1.0087
B( 16-C , 18-H ) :   1.0003 B( 16-C , 19-H ) :   0.9468 B( 20-C , 21-H ) :   1.0035
B( 20-C , 22-H ) :   0.9868 B( 20-C , 23-H ) :   1.0347 B( 24-Au, 25-P ) :   0.8583
B( 25-P , 26-H ) :   0.9589 B( 25-P , 27-H ) :   0.9648 B( 25-P , 28-H ) :   0.9586

MP2 TOTAL ENERGY:    -1053.675426895 Eh
Dispersion correction           -0.034551010
FINAL SINGLE POINT ENERGY     -1053.709977904883

DIPOLE MOMENT
-------------
                                X             Y             Z
Electronic contribution:   -213.28309     -43.42943      -1.30035
Nuclear contribution   :    216.19870      43.43467       1.47956
                        -----------------------------------------
Total Dipole Moment    :      2.91561       0.00524       0.17921
                        -----------------------------------------
Magnitude (a.u.)       :      2.92112
Magnitude (Debye)      :      7.42489

Rotational constants in cm-1:     0.028648     0.008219     0.007101
Rotational constants in MHz :   858.848987   246.390678   212.872024

                             ****ORCA TERMINATED NORMALLY****
TOTAL RUN TIME: 0 days 0 hours 1 minutes 24 seconds 138 msec
