                         Program Version 4.2.0 -  RELEASE  -
|  1> #
|  2> # TMB20_C1 ri-DSD-BLYP/2013-D3BJ/Def2-TZVPPD
|  3> #
|  4> ! rijk ri-dsd-blyp/2013 d3bj def2-tzvppd def2/jk def2-tzvppd/c grid4 nofinalgrid
|  5>
|  6> *xyz 0 1
|  7> Re      -1.072665    0.212376   -0.034636
|  8> C       -1.072260   -0.271683    1.857255
|  9> C       -2.882577   -0.347239   -0.151918
| 10> C       -1.671800    1.974535    0.387813
| 11> Br      -0.106106   -2.222959   -0.227559
| 12> O       -2.042355    3.032773    0.649150
| 13> O       -1.092539   -0.543239    2.965184
| 14> O       -3.977345   -0.680746   -0.233754
| 15> C       -1.097144    1.301488   -2.052782
| 16> C       -0.757943    0.130940   -2.251371
| 17> C        3.116548    1.792974   -0.035452
| 18> C        3.822495    0.593532    0.034050
| 19> O        3.256440   -0.568022    0.077602
| 20> O        5.128051    0.619793    0.055969
| 21> C        1.730040    1.757413   -0.054388
| 22> O        1.074850    0.675289   -0.001074
| 23> H        2.259004   -0.423965    0.051981
| 24> C        5.826586   -0.629933    0.127198
| 25> H        6.879482   -0.365214    0.136783
| 26> H        5.557636   -1.164457    1.037079
| 27> H        5.594141   -1.245208   -0.740821
| 28> H       -0.446457   -0.764543   -2.749196
| 29> H        3.656243    2.725032   -0.072675
| 30> H       -1.374127    2.315189   -2.254725
| 31> H        1.177176    2.699572   -0.113184
| 32> *
| 33>
| 34> %maxcore 5000
| 35>
| 36> %pal
| 37> nprocs = 24
| 38> end
| 39>
| 40>
| 41>                          ****END OF INPUT****

CARTESIAN COORDINATES (ANGSTROEM)
---------------------------------
  Re    -1.072665    0.212376   -0.034636
  C     -1.072260   -0.271683    1.857255
  C     -2.882577   -0.347239   -0.151918
  C     -1.671800    1.974535    0.387813
  Br    -0.106106   -2.222959   -0.227559
  O     -2.042355    3.032773    0.649150
  O     -1.092539   -0.543239    2.965184
  O     -3.977345   -0.680746   -0.233754
  C     -1.097144    1.301488   -2.052782
  C     -0.757943    0.130940   -2.251371
  C      3.116548    1.792974   -0.035452
  C      3.822495    0.593532    0.034050
  O      3.256440   -0.568022    0.077602
  O      5.128051    0.619793    0.055969
  C      1.730040    1.757413   -0.054388
  O      1.074850    0.675289   -0.001074
  H      2.259004   -0.423965    0.051981
  C      5.826586   -0.629933    0.127198
  H      6.879482   -0.365214    0.136783
  H      5.557636   -1.164457    1.037079
  H      5.594141   -1.245208   -0.740821
  H     -0.446457   -0.764543   -2.749196
  H      3.656243    2.725032   -0.072675
  H     -1.374127    2.315189   -2.254725
  H      1.177176    2.699572   -0.113184

 Total Charge           Charge          ....    0
 Multiplicity           Mult            ....    1
 Number of Electrons    NEL             ....  160
 Basis Dimension        Dim             ....  825

ORBITAL ENERGIES
----------------

  NO   OCC          E(Eh)            E(eV)
   0   2.0000    -487.380927    -13262.3093
   1   2.0000     -64.132944     -1745.1461
   2   2.0000     -57.653317     -1568.8265
   3   2.0000     -57.652453     -1568.8030
   4   2.0000     -57.652373     -1568.8008
   5   2.0000     -20.147706      -548.2470
   6   2.0000     -20.133127      -547.8502
   7   2.0000     -20.129616      -547.7547
   8   2.0000     -20.119635      -547.4831
   9   2.0000     -20.108717      -547.1860
  10   2.0000     -20.085467      -546.5533
  11   2.0000     -11.060234      -300.9643
  12   2.0000     -10.988278      -299.0063
  13   2.0000     -10.988151      -299.0028
  14   2.0000     -10.987743      -298.9917
  15   2.0000     -10.973254      -298.5974
  16   2.0000     -10.945624      -297.8456
  17   2.0000     -10.902730      -296.6784
  18   2.0000     -10.893027      -296.4143
  19   2.0000     -10.876360      -295.9608
  20   2.0000      -9.352917      -254.5058
  21   2.0000      -7.040504      -191.5818
  22   2.0000      -7.037002      -191.4866
  23   2.0000      -7.036736      -191.4793
  24   2.0000      -3.521560       -95.8265
  25   2.0000      -2.916850       -79.3715
  26   2.0000      -2.915617       -79.3380
  27   2.0000      -2.915359       -79.3309
  28   2.0000      -2.911718       -79.2319
  29   2.0000      -2.911704       -79.2315
  30   2.0000      -1.981805       -53.9277
  31   2.0000      -1.980402       -53.8895
  32   2.0000      -1.977707       -53.8161
  33   2.0000      -1.413711       -38.4690
  34   2.0000      -1.370546       -37.2944
  35   2.0000      -1.360330       -37.0165
  36   2.0000      -1.349267       -36.7154
  37   2.0000      -1.330165       -36.1956
  38   2.0000      -1.298796       -35.3420
  39   2.0000      -1.012522       -27.5521
  40   2.0000      -0.981876       -26.7182
  41   2.0000      -0.930677       -25.3250
  42   2.0000      -0.852047       -23.1854
  43   2.0000      -0.817137       -22.2354
  44   2.0000      -0.806695       -21.9513
  45   2.0000      -0.739084       -20.1115
  46   2.0000      -0.726649       -19.7731
  47   2.0000      -0.713468       -19.4145
  48   2.0000      -0.711028       -19.3480
  49   2.0000      -0.705598       -19.2003
  50   2.0000      -0.677600       -18.4384
  51   2.0000      -0.665397       -18.1064
  52   2.0000      -0.658487       -17.9183
  53   2.0000      -0.640762       -17.4360
  54   2.0000      -0.620309       -16.8795
  55   2.0000      -0.609557       -16.5869
  56   2.0000      -0.588024       -16.0009
  57   2.0000      -0.586097       -15.9485
  58   2.0000      -0.585794       -15.9403
  59   2.0000      -0.580038       -15.7836
  60   2.0000      -0.577145       -15.7049
  61   2.0000      -0.573389       -15.6027
  62   2.0000      -0.570202       -15.5160
  63   2.0000      -0.561650       -15.2833
  64   2.0000      -0.553493       -15.0613
  65   2.0000      -0.550686       -14.9849
  66   2.0000      -0.540956       -14.7201
  67   2.0000      -0.537744       -14.6328
  68   2.0000      -0.515193       -14.0191
  69   2.0000      -0.483895       -13.1674
  70   2.0000      -0.447818       -12.1858
  71   2.0000      -0.436105       -11.8670
  72   2.0000      -0.417639       -11.3645
  73   2.0000      -0.365027        -9.9329
  74   2.0000      -0.354490        -9.6462
  75   2.0000      -0.350401        -9.5349
  76   2.0000      -0.346397        -9.4259
  77   2.0000      -0.297824        -8.1042
  78   2.0000      -0.296386        -8.0651
  79   2.0000      -0.286834        -7.8052
  80   0.0000       0.001293         0.0352
  81   0.0000       0.021801         0.5932
  82   0.0000       0.023136         0.6296
  83   0.0000       0.032547         0.8857
  84   0.0000       0.046063         1.2534

MULLIKEN ATOMIC CHARGES
-----------------------
   0 Re:    0.762265
   1 C :    0.376790
   2 C :    0.647806
   3 C :    0.217056
   4 Br:   -0.747770
   5 O :   -0.443539
   6 O :   -0.350408
   7 O :   -0.431763
   8 C :   -0.036174
   9 C :   -0.004958
  10 C :   -0.735229
  11 C :    0.992754
  12 O :   -0.455524
  13 O :   -0.336488
  14 C :    0.888751
  15 O :   -0.877495
  16 H :    0.406905
  17 C :   -0.042856
  18 H :    0.055367
  19 H :    0.110800
  20 H :    0.109253
  21 H :    0.017172
  22 H :   -0.066525
  23 H :   -0.025264
  24 H :   -0.030926
Sum of atomic charges:   -0.0000000

LOEWDIN ATOMIC CHARGES
----------------------
   0 Re:    0.525609
   1 C :   -0.254809
   2 C :   -0.264396
   3 C :   -0.255227
   4 Br:    0.078578
   5 O :    0.079651
   6 O :    0.108019
   7 O :    0.090862
   8 C :    0.034747
   9 C :   -0.025540
  10 C :    0.113221
  11 C :   -0.298361
  12 O :    0.332204
  13 O :    0.032020
  14 C :   -0.078257
  15 O :   -0.206025
  16 H :   -0.207746
  17 C :    0.205839
  18 H :    0.016075
  19 H :    0.018975
  20 H :    0.018852
  21 H :   -0.070801
  22 H :    0.007390
  23 H :   -0.044192
  24 H :    0.043312

  Mayer bond orders larger than 0.100000
B(  0-Re,  1-C ) :   0.9264 B(  0-Re,  2-C ) :   1.3870 B(  0-Re,  3-C ) :   1.1978
B(  0-Re,  4-Br) :   0.2081 B(  0-Re,  7-O ) :   0.1094 B(  0-Re,  8-C ) :   0.5800
B(  0-Re,  9-C ) :   0.3779 B(  0-Re, 15-O ) :   0.2387 B(  1-C ,  2-C ) :  -0.1307
B(  1-C ,  4-Br) :   0.1163 B(  1-C ,  6-O ) :   2.1282 B(  2-C ,  7-O ) :   2.0717
B(  3-C ,  5-O ) :   2.0448 B(  3-C ,  8-C ) :   0.1033 B(  8-C ,  9-C ) :   1.9626
B(  8-C , 21-H ) :  -0.1340 B(  8-C , 23-H ) :   1.1135 B(  9-C , 21-H ) :   1.1339
B(  9-C , 23-H ) :  -0.1233 B( 10-C , 11-C ) :   0.8895 B( 10-C , 14-C ) :   1.0402
B( 10-C , 22-H ) :   1.2427 B( 10-C , 24-H ) :  -0.1608 B( 11-C , 12-O ) :   1.0897
B( 11-C , 13-O ) :   1.0141 B( 11-C , 14-C ) :   0.1511 B( 11-C , 15-O ) :   0.1623
B( 12-O , 16-H ) :   0.7709 B( 13-O , 17-C ) :   0.7981 B( 14-C , 15-O ) :   1.0866
B( 14-C , 22-H ) :  -0.1229 B( 14-C , 24-H ) :   1.0415 B( 17-C , 18-H ) :   1.0501
B( 17-C , 19-H ) :   0.9913 B( 17-C , 20-H ) :   0.9909

MP2 TOTAL ENERGY:    -3450.327790285 Eh
Dispersion correction           -0.038934344
FINAL SINGLE POINT ENERGY     -3450.366724628810

DIPOLE MOMENT
-------------
                                X             Y             Z
Electronic contribution:   -158.39736      14.48420      -4.02461
Nuclear contribution   :    161.40681     -12.70221       3.21078
                        -----------------------------------------
Total Dipole Moment    :      3.00945       1.78199      -0.81383
                        -----------------------------------------
Magnitude (a.u.)       :      3.59091
Magnitude (Debye)      :      9.12737

Rotational constants in cm-1:     0.015589     0.006706     0.005713
Rotational constants in MHz :   467.340547   201.035293   171.274519

                             ****ORCA TERMINATED NORMALLY****
TOTAL RUN TIME: 0 days 0 hours 1 minutes 38 seconds 413 msec
