                         Program Version 4.2.0 -  RELEASE  -
|  1> #
|  2> # TMB28_C1 ri-DSD-BLYP/2013-D3BJ/Def2-TZVPPD
|  3> #
|  4> ! rijk ri-dsd-blyp/2013 d3bj def2-tzvppd def2/jk def2-tzvppd/c grid4 nofinalgrid
|  5>
|  6> *xyz 0 1
|  7> C       -0.405710    1.676464   -0.132905
|  8> C       -0.911585    0.669613    0.356254
|  9> C       -0.058307    2.983711   -0.650101
| 10> H       -0.949750    3.612259   -0.580916
| 11> H        0.745323    3.420879   -0.056180
| 12> H        0.255303    2.923577   -1.693087
| 13> C       -1.922079   -0.256189    0.903797
| 14> O       -2.980737   -0.448274   -0.040247
| 15> C       -3.644467    0.620195   -0.535863
| 16> O       -3.419291    1.755394   -0.218963
| 17> C       -1.315036   -1.659397    1.187254
| 18> O       -0.292489   -1.714090    1.813533
| 19> C       -2.070337   -2.858032    0.718520
| 20> H       -2.050973   -2.878590   -0.373534
| 21> H       -1.593281   -3.749478    1.117849
| 22> H       -3.118661   -2.810283    1.017394
| 23> C       -4.664667    0.177679   -1.534856
| 24> H       -5.268795    1.028888   -1.835351
| 25> H       -4.153929   -0.239550   -2.404894
| 26> H       -5.293840   -0.608504   -1.117133
| 27> C       -2.442836    0.266886    2.244835
| 28> H       -3.205737   -0.415249    2.624458
| 29> H       -1.614369    0.303689    2.950542
| 30> H       -2.869838    1.259004    2.124200
| 31> Au       1.189623    0.069390   -0.174295
| 32> Cl       0.186320   -1.092349   -1.885264
| 33> Cl       3.146088   -1.001725   -0.550079
| 34> Cl       2.155158    1.282412    1.507095
| 35> *
| 36>
| 37> %maxcore 5000
| 38>
| 39> %pal
| 40> nprocs = 24
| 41> end
| 42>
| 43>
| 44>                          ****END OF INPUT****

CARTESIAN COORDINATES (ANGSTROEM)
---------------------------------
  C     -0.405710    1.676464   -0.132905
  C     -0.911585    0.669613    0.356254
  C     -0.058307    2.983711   -0.650101
  H     -0.949750    3.612259   -0.580916
  H      0.745323    3.420879   -0.056180
  H      0.255303    2.923577   -1.693087
  C     -1.922079   -0.256189    0.903797
  O     -2.980737   -0.448274   -0.040247
  C     -3.644467    0.620195   -0.535863
  O     -3.419291    1.755394   -0.218963
  C     -1.315036   -1.659397    1.187254
  O     -0.292489   -1.714090    1.813533
  C     -2.070337   -2.858032    0.718520
  H     -2.050973   -2.878590   -0.373534
  H     -1.593281   -3.749478    1.117849
  H     -3.118661   -2.810283    1.017394
  C     -4.664667    0.177679   -1.534856
  H     -5.268795    1.028888   -1.835351
  H     -4.153929   -0.239550   -2.404894
  H     -5.293840   -0.608504   -1.117133
  C     -2.442836    0.266886    2.244835
  H     -3.205737   -0.415249    2.624458
  H     -1.614369    0.303689    2.950542
  H     -2.869838    1.259004    2.124200
  Au     1.189623    0.069390   -0.174295
  Cl     0.186320   -1.092349   -1.885264
  Cl     3.146088   -1.001725   -0.550079
  Cl     2.155158    1.282412    1.507095

 Total Charge           Charge          ....    0
 Multiplicity           Mult            ....    1
 Number of Electrons    NEL             ....  160
 Basis Dimension        Dim             ....  869

ORBITAL ENERGIES
----------------

  NO   OCC          E(Eh)            E(eV)
   0   2.0000    -103.623279     -2819.7328
   1   2.0000    -103.619934     -2819.6417
   2   2.0000    -103.616046     -2819.5360
   3   2.0000     -20.134026      -547.8747
   4   2.0000     -20.071353      -546.1693
   5   2.0000     -20.069963      -546.1315
   6   2.0000     -11.035219      -300.2836
   7   2.0000     -11.001412      -299.3636
   8   2.0000     -10.990161      -299.0575
   9   2.0000     -10.956083      -298.1302
  10   2.0000     -10.942816      -297.7692
  11   2.0000     -10.910475      -296.8891
  12   2.0000     -10.888403      -296.2885
  13   2.0000     -10.885350      -296.2054
  14   2.0000     -10.875805      -295.9457
  15   2.0000     -10.138885      -275.8931
  16   2.0000     -10.135363      -275.7972
  17   2.0000     -10.131256      -275.6855
  18   2.0000      -7.712170      -209.8588
  19   2.0000      -7.709007      -209.7728
  20   2.0000      -7.708798      -209.7670
  21   2.0000      -7.708782      -209.7666
  22   2.0000      -7.705344      -209.6731
  23   2.0000      -7.705172      -209.6684
  24   2.0000      -7.704854      -209.6597
  25   2.0000      -7.701120      -209.5581
  26   2.0000      -7.700823      -209.5500
  27   2.0000      -4.661317      -126.8409
  28   2.0000      -2.744612       -74.6847
  29   2.0000      -2.742149       -74.6177
  30   2.0000      -2.727162       -74.2098
  31   2.0000      -1.382846       -37.6291
  32   2.0000      -1.313716       -35.7480
  33   2.0000      -1.285598       -34.9829
  34   2.0000      -1.070100       -29.1189
  35   2.0000      -1.019690       -27.7472
  36   2.0000      -0.971316       -26.4309
  37   2.0000      -0.952785       -25.9266
  38   2.0000      -0.951638       -25.8954
  39   2.0000      -0.949671       -25.8419
  40   2.0000      -0.947739       -25.7893
  41   2.0000      -0.929907       -25.3040
  42   2.0000      -0.859514       -23.3886
  43   2.0000      -0.772684       -21.0258
  44   2.0000      -0.740366       -20.1464
  45   2.0000      -0.669054       -18.2059
  46   2.0000      -0.662194       -18.0192
  47   2.0000      -0.646746       -17.5989
  48   2.0000      -0.635955       -17.3052
  49   2.0000      -0.615326       -16.7439
  50   2.0000      -0.607043       -16.5185
  51   2.0000      -0.604142       -16.4395
  52   2.0000      -0.590832       -16.0774
  53   2.0000      -0.586640       -15.9633
  54   2.0000      -0.572620       -15.5818
  55   2.0000      -0.565156       -15.3787
  56   2.0000      -0.561388       -15.2761
  57   2.0000      -0.555652       -15.1200
  58   2.0000      -0.553058       -15.0495
  59   2.0000      -0.548077       -14.9139
  60   2.0000      -0.546449       -14.8696
  61   2.0000      -0.543644       -14.7933
  62   2.0000      -0.542317       -14.7572
  63   2.0000      -0.519334       -14.1318
  64   2.0000      -0.515968       -14.0402
  65   2.0000      -0.503868       -13.7109
  66   2.0000      -0.488294       -13.2872
  67   2.0000      -0.455140       -12.3850
  68   2.0000      -0.453302       -12.3350
  69   2.0000      -0.437255       -11.8983
  70   2.0000      -0.433887       -11.8067
  71   2.0000      -0.424678       -11.5561
  72   2.0000      -0.407411       -11.0862
  73   2.0000      -0.395928       -10.7737
  74   2.0000      -0.393827       -10.7166
  75   2.0000      -0.377502       -10.2724
  76   2.0000      -0.373377       -10.1601
  77   2.0000      -0.372178       -10.1275
  78   2.0000      -0.369571       -10.0565
  79   2.0000      -0.358061        -9.7433
  80   0.0000      -0.064960        -1.7676
  81   0.0000       0.019709         0.5363
  82   0.0000       0.027204         0.7402
  83   0.0000       0.036520         0.9938
  84   0.0000       0.040013         1.0888

MULLIKEN ATOMIC CHARGES
-----------------------
   0 C :    1.832094
   1 C :   -1.455007
   2 C :   -0.827962
   3 H :    0.112276
   4 H :    0.126514
   5 H :    0.122349
   6 C :    2.810582
   7 O :   -0.275012
   8 C :    0.762577
   9 O :   -0.579862
  10 C :   -0.020182
  11 O :   -0.634801
  12 C :   -0.343593
  13 H :    0.071831
  14 H :    0.096859
  15 H :    0.108240
  16 C :   -0.502193
  17 H :    0.091290
  18 H :    0.073788
  19 H :    0.098213
  20 C :   -0.992941
  21 H :    0.124143
  22 H :    0.154688
  23 H :    0.150799
  24 Au:    0.378960
  25 Cl:   -0.539789
  26 Cl:   -0.411242
  27 Cl:   -0.532619
Sum of atomic charges:   -0.0000000

LOEWDIN ATOMIC CHARGES
----------------------
   0 C :   -0.146287
   1 C :   -0.095480
   2 C :    0.151534
   3 H :    0.013540
   4 H :   -0.014770
   5 H :    0.007913
   6 C :   -0.342161
   7 O :    0.006524
   8 C :   -0.418439
   9 O :    0.096024
  10 C :   -0.336372
  11 O :    0.058170
  12 C :    0.226086
  13 H :   -0.001952
  14 H :    0.008944
  15 H :    0.005473
  16 C :    0.251874
  17 H :    0.004010
  18 H :    0.011403
  19 H :    0.006238
  20 C :    0.246582
  21 H :    0.017950
  22 H :    0.017276
  23 H :    0.002133
  24 Au:    0.338118
  25 Cl:   -0.004651
  26 Cl:   -0.092001
  27 Cl:   -0.017677

  Mayer bond orders larger than 0.100000
B(  0-C ,  1-C ) :   0.2757 B(  0-C ,  2-C ) :   0.7401 B(  0-C ,  9-O ) :  -0.1817
B(  0-C , 10-C ) :  -0.2426 B(  0-C , 20-C ) :  -0.1006 B(  0-C , 24-Au) :  -0.1495
B(  0-C , 25-Cl) :  -0.5552 B(  0-C , 27-Cl) :   0.2526 B(  1-C ,  2-C ) :  -0.1615
B(  1-C ,  6-C ) :   0.8050 B(  1-C ,  7-O ) :   0.1419 B(  1-C , 10-C ) :   0.2741
B(  1-C , 20-C ) :   0.6493 B(  1-C , 24-Au) :   0.8171 B(  1-C , 25-Cl) :   0.1611
B(  1-C , 27-Cl) :  -0.5870 B(  2-C ,  3-H ) :   1.0629 B(  2-C ,  4-H ) :   0.9912
B(  2-C ,  5-H ) :   1.0179 B(  6-C ,  7-O ) :   0.3118 B(  6-C ,  8-C ) :  -0.1656
B(  6-C ,  9-O ) :   0.1314 B(  6-C , 11-O ) :  -0.1988 B(  6-C , 20-C ) :   0.1967
B(  6-C , 21-H ) :  -0.1284 B(  6-C , 23-H ) :  -0.1152 B(  6-C , 25-Cl) :   0.2393
B(  7-O ,  8-C ) :   1.0234 B(  7-O , 16-C ) :  -0.1083 B(  8-C ,  9-O ) :   1.7331
B(  8-C , 16-C ) :   0.9749 B( 10-C , 11-O ) :   1.6427 B( 10-C , 12-C ) :   1.0536
B( 10-C , 24-Au) :  -0.2004 B( 12-C , 13-H ) :   0.9676 B( 12-C , 14-H ) :   1.0580
B( 12-C , 15-H ) :   0.9410 B( 16-C , 17-H ) :   1.0401 B( 16-C , 18-H ) :   0.9933
B( 16-C , 19-H ) :   0.9903 B( 20-C , 21-H ) :   1.0322 B( 20-C , 22-H ) :   1.0061
B( 20-C , 23-H ) :   0.9629 B( 24-Au, 25-Cl) :   0.9022 B( 24-Au, 26-Cl) :   0.7045
B( 24-Au, 27-Cl) :   0.8723 B( 25-Cl, 27-Cl) :   0.1133

MP2 TOTAL ENERGY:    -2090.926626420 Eh
Dispersion correction           -0.042246717
FINAL SINGLE POINT ENERGY     -2090.968873136145

DIPOLE MOMENT
-------------
                                X             Y             Z
Electronic contribution:    184.56396       8.45328     -26.32354
Nuclear contribution   :   -188.12551      -7.68230      26.09317
                        -----------------------------------------
Total Dipole Moment    :     -3.56155       0.77098      -0.23037
                        -----------------------------------------
Magnitude (a.u.)       :      3.65132
Magnitude (Debye)      :      9.28091

Rotational constants in cm-1:     0.016324     0.007365     0.006921
Rotational constants in MHz :   489.388468   220.811279   207.480820

                             ****ORCA TERMINATED NORMALLY****
TOTAL RUN TIME: 0 days 0 hours 1 minutes 54 seconds 71 msec
