                         Program Version 4.2.0 -  RELEASE  -
|  1> #
|  2> # TMB20_T2 ri-DSD-BLYP/2013-D3BJ/Def2-TZVPPD
|  3> #
|  4> ! rijk ri-dsd-blyp/2013 d3bj def2-tzvppd def2/jk def2-tzvppd/c grid4 nofinalgrid
|  5>
|  6> *xyz 0 1
|  7> Re       0.995979    0.090170   -0.058185
|  8> C        2.014396   -1.161086   -1.123855
|  9> C        1.992692   -0.479631    1.452527
| 10> C        2.318376    1.423242   -0.367549
| 11> Br      -0.834689   -1.732689    0.254349
| 12> O        3.132368    2.217573   -0.550268
| 13> O        2.612239   -1.888693   -1.769425
| 14> O        2.568963   -0.789175    2.393169
| 15> C       -1.540273    1.685786    1.546594
| 16> C       -0.263771    1.318522    1.475095
| 17> C       -2.014636    1.773094    0.144138
| 18> C       -2.942101    0.711821   -0.394874
| 19> O       -2.841029    0.284728   -1.529710
| 20> O       -3.882762    0.367872    0.447794
| 21> C       -0.602735    1.743713   -0.435058
| 22> O       -0.382838    0.990264   -1.561710
| 23> H       -1.229741    0.476538   -1.736592
| 24> C       -4.752144   -0.688497    0.013665
| 25> H       -5.447661   -0.845693    0.832416
| 26> H       -5.279179   -0.395656   -0.893281
| 27> H       -4.161178   -1.583930   -0.173849
| 28> H        0.422554    1.379477    2.313653
| 29> H       -2.484103    2.733887   -0.106082
| 30> H       -2.090878    1.979492    2.431124
| 31> H       -0.128477    2.714877   -0.508669
| 32> *
| 33>
| 34> %maxcore 5000
| 35>
| 36> %pal
| 37> nprocs = 24
| 38> end
| 39>
| 40>
| 41>                          ****END OF INPUT****

CARTESIAN COORDINATES (ANGSTROEM)
---------------------------------
  Re     0.995979    0.090170   -0.058185
  C      2.014396   -1.161086   -1.123855
  C      1.992692   -0.479631    1.452527
  C      2.318376    1.423242   -0.367549
  Br    -0.834689   -1.732689    0.254349
  O      3.132368    2.217573   -0.550268
  O      2.612239   -1.888693   -1.769425
  O      2.568963   -0.789175    2.393169
  C     -1.540273    1.685786    1.546594
  C     -0.263771    1.318522    1.475095
  C     -2.014636    1.773094    0.144138
  C     -2.942101    0.711821   -0.394874
  O     -2.841029    0.284728   -1.529710
  O     -3.882762    0.367872    0.447794
  C     -0.602735    1.743713   -0.435058
  O     -0.382838    0.990264   -1.561710
  H     -1.229741    0.476538   -1.736592
  C     -4.752144   -0.688497    0.013665
  H     -5.447661   -0.845693    0.832416
  H     -5.279179   -0.395656   -0.893281
  H     -4.161178   -1.583930   -0.173849
  H      0.422554    1.379477    2.313653
  H     -2.484103    2.733887   -0.106082
  H     -2.090878    1.979492    2.431124
  H     -0.128477    2.714877   -0.508669

 Total Charge           Charge          ....    0
 Multiplicity           Mult            ....    1
 Number of Electrons    NEL             ....  160
 Basis Dimension        Dim             ....  825

ORBITAL ENERGIES
----------------

  NO   OCC          E(Eh)            E(eV)
   0   2.0000    -487.385715    -13262.4396
   1   2.0000     -64.137782     -1745.2778
   2   2.0000     -57.658064     -1568.9557
   3   2.0000     -57.657333     -1568.9358
   4   2.0000     -57.657286     -1568.9345
   5   2.0000     -20.147495      -548.2412
   6   2.0000     -20.133838      -547.8696
   7   2.0000     -20.131515      -547.8064
   8   2.0000     -20.124865      -547.6254
   9   2.0000     -20.116843      -547.4071
  10   2.0000     -20.079268      -546.3847
  11   2.0000     -11.045987      -300.5766
  12   2.0000     -11.025024      -300.0062
  13   2.0000     -10.992166      -299.1120
  14   2.0000     -10.988063      -299.0004
  15   2.0000     -10.982660      -298.8534
  16   2.0000     -10.930216      -297.4263
  17   2.0000     -10.928894      -297.3903
  18   2.0000     -10.913719      -296.9774
  19   2.0000     -10.899245      -296.5835
  20   2.0000      -9.357739      -254.6370
  21   2.0000      -7.045048      -191.7055
  22   2.0000      -7.041979      -191.6220
  23   2.0000      -7.041799      -191.6171
  24   2.0000      -3.525278       -95.9277
  25   2.0000      -2.921396       -79.4952
  26   2.0000      -2.920239       -79.4637
  27   2.0000      -2.920063       -79.4590
  28   2.0000      -2.916904       -79.3730
  29   2.0000      -2.916900       -79.3729
  30   2.0000      -1.991286       -54.1857
  31   2.0000      -1.982704       -53.9521
  32   2.0000      -1.981936       -53.9312
  33   2.0000      -1.390724       -37.8435
  34   2.0000      -1.372333       -37.3431
  35   2.0000      -1.365599       -37.1598
  36   2.0000      -1.356309       -36.9070
  37   2.0000      -1.354614       -36.8609
  38   2.0000      -1.287465       -35.0337
  39   2.0000      -1.087044       -29.5800
  40   2.0000      -0.948641       -25.8138
  41   2.0000      -0.902543       -24.5595
  42   2.0000      -0.863256       -23.4904
  43   2.0000      -0.858026       -23.3481
  44   2.0000      -0.763179       -20.7671
  45   2.0000      -0.745803       -20.2943
  46   2.0000      -0.735443       -20.0124
  47   2.0000      -0.717604       -19.5270
  48   2.0000      -0.713112       -19.4048
  49   2.0000      -0.702206       -19.1080
  50   2.0000      -0.690154       -18.7801
  51   2.0000      -0.659543       -17.9471
  52   2.0000      -0.655900       -17.8480
  53   2.0000      -0.642127       -17.4732
  54   2.0000      -0.628111       -17.0918
  55   2.0000      -0.615733       -16.7549
  56   2.0000      -0.596637       -16.2353
  57   2.0000      -0.592522       -16.1233
  58   2.0000      -0.586827       -15.9684
  59   2.0000      -0.579889       -15.7796
  60   2.0000      -0.578268       -15.7355
  61   2.0000      -0.568209       -15.4618
  62   2.0000      -0.563814       -15.3422
  63   2.0000      -0.559934       -15.2366
  64   2.0000      -0.558448       -15.1962
  65   2.0000      -0.550892       -14.9905
  66   2.0000      -0.544804       -14.8249
  67   2.0000      -0.514879       -14.0106
  68   2.0000      -0.505293       -13.7497
  69   2.0000      -0.502544       -13.6749
  70   2.0000      -0.451905       -12.2970
  71   2.0000      -0.449350       -12.2274
  72   2.0000      -0.424283       -11.5453
  73   2.0000      -0.400674       -10.9029
  74   2.0000      -0.368886       -10.0379
  75   2.0000      -0.358096        -9.7443
  76   2.0000      -0.340566        -9.2673
  77   2.0000      -0.317358        -8.6357
  78   2.0000      -0.297812        -8.1039
  79   2.0000      -0.293103        -7.9757
  80   0.0000      -0.006486        -0.1765
  81   0.0000       0.017318         0.4712
  82   0.0000       0.033124         0.9014
  83   0.0000       0.037448         1.0190
  84   0.0000       0.044316         1.2059

MULLIKEN ATOMIC CHARGES
-----------------------
   0 Re:    0.441293
   1 C :    0.578864
   2 C :    0.381549
   3 C :    0.218829
   4 Br:   -0.689320
   5 O :   -0.430874
   6 O :   -0.372484
   7 O :   -0.406522
   8 C :   -0.551264
   9 C :    0.042813
  10 C :    1.400106
  11 C :    0.234873
  12 O :   -0.651545
  13 O :   -0.293972
  14 C :    0.000227
  15 O :   -0.539375
  16 H :    0.444273
  17 C :   -0.045292
  18 H :    0.061101
  19 H :    0.104476
  20 H :    0.092546
  21 H :   -0.117990
  22 H :    0.061025
  23 H :   -0.120245
  24 H :    0.156907
Sum of atomic charges:   -0.0000000

LOEWDIN ATOMIC CHARGES
----------------------
   0 Re:    0.540360
   1 C :   -0.234558
   2 C :   -0.279980
   3 C :   -0.228404
   4 Br:    0.138046
   5 O :    0.079933
   6 O :    0.111048
   7 O :    0.106254
   8 C :    0.021137
   9 C :    0.033207
  10 C :   -0.081792
  11 C :   -0.442875
  12 O :    0.084053
  13 O :    0.012866
  14 C :   -0.116267
  15 O :    0.118188
  16 H :   -0.200425
  17 C :    0.203440
  18 H :    0.014513
  19 H :    0.015228
  20 H :    0.005550
  21 H :   -0.033484
  22 H :    0.073201
  23 H :    0.017755
  24 H :    0.043007

  Mayer bond orders larger than 0.100000
B(  0-Re,  1-C ) :   1.1495 B(  0-Re,  2-C ) :   1.3489 B(  0-Re,  3-C ) :   1.4124
B(  0-Re,  4-Br) :   0.2425 B(  0-Re,  9-C ) :   0.3061 B(  0-Re, 14-C ) :   0.3810
B(  0-Re, 15-O ) :   0.3526 B(  1-C ,  2-C ) :  -0.1664 B(  1-C ,  6-O ) :   2.1617
B(  2-C ,  4-Br) :   0.1095 B(  2-C ,  7-O ) :   2.1082 B(  2-C ,  9-C ) :   0.1705
B(  3-C ,  5-O ) :   2.0377 B(  4-Br, 11-C ) :   0.1160 B(  8-C ,  9-C ) :   1.5561
B(  8-C , 10-C ) :   0.6325 B(  8-C , 11-C ) :   0.1028 B(  8-C , 14-C ) :   0.1429
B(  8-C , 21-H ) :  -0.1201 B(  8-C , 23-H ) :   1.1981 B(  9-C , 11-C ) :   0.1025
B(  9-C , 14-C ) :   0.3825 B(  9-C , 21-H ) :   1.1644 B(  9-C , 23-H ) :  -0.1238
B( 10-C , 11-C ) :   0.1134 B( 10-C , 14-C ) :   1.0620 B( 10-C , 22-H ) :   0.7525
B( 11-C , 12-O ) :   1.4787 B( 11-C , 13-O ) :   0.9006 B( 11-C , 14-C ) :   0.5145
B( 11-C , 22-H ) :   0.1068 B( 13-O , 17-C ) :   0.7850 B( 14-C , 15-O ) :   0.7437
B( 14-C , 24-H ) :   0.9611 B( 15-O , 16-H ) :   0.8523 B( 17-C , 18-H ) :   1.0610
B( 17-C , 19-H ) :   0.9757 B( 17-C , 20-H ) :   0.9867

MP2 TOTAL ENERGY:    -3450.301610994 Eh
Dispersion correction           -0.041822534
FINAL SINGLE POINT ENERGY     -3450.343433527496

DIPOLE MOMENT
-------------
                                X             Y             Z
Electronic contribution:    141.11965      -0.46473      -7.44214
Nuclear contribution   :   -143.25315       2.56406       7.67326
                        -----------------------------------------
Total Dipole Moment    :     -2.13350       2.09933       0.23113
                        -----------------------------------------
Magnitude (a.u.)       :      3.00207
Magnitude (Debye)      :      7.63066

Rotational constants in cm-1:     0.017495     0.008280     0.007326
Rotational constants in MHz :   524.496520   248.224980   219.630549

                             ****ORCA TERMINATED NORMALLY****
TOTAL RUN TIME: 0 days 0 hours 1 minutes 43 seconds 618 msec
