                         Program Version 4.2.0 -  RELEASE  -
|  1> #
|  2> # TMB29_T1 ri-DSD-BLYP/2013-D3BJ/Def2-TZVPPD
|  3> #
|  4> ! rijk ri-dsd-blyp/2013 d3bj def2-tzvppd def2/jk def2-tzvppd/c grid4 nofinalgrid
|  5>
|  6> *xyz 1 1
|  7> C        0.302195   -1.452011   -0.105192
|  8> C        1.172851   -0.582511    0.135564
|  9> C        0.213900   -2.914548   -0.330337
| 10> H        1.214756   -3.345744   -0.317276
| 11> H       -0.388020   -3.382295    0.449588
| 12> H       -0.265099   -3.130327   -1.285361
| 13> C        1.829635    0.694580    0.494281
| 14> O        3.171960    0.697894   -0.020842
| 15> C        3.732653   -0.510299   -0.087290
| 16> O        3.070225   -1.500320    0.142290
| 17> C        1.080449    1.884401   -0.190647
| 18> O        0.030957    2.232541    0.278513
| 19> C        1.716450    2.521139   -1.379228
| 20> H        1.946637    1.771224   -2.139595
| 21> H        1.044796    3.276244   -1.779459
| 22> H        2.667103    2.978996   -1.097340
| 23> C        5.172060   -0.490501   -0.447138
| 24> H        5.507658   -1.496958   -0.678577
| 25> H        5.341426    0.179166   -1.290238
| 26> H        5.741456   -0.101237    0.400021
| 27> C        1.875471    0.903584    2.001010
| 28> H        2.434564    1.811885    2.227294
| 29> H        0.861108    1.010944    2.380408
| 30> H        2.353249    0.052039    2.484190
| 31> Au      -1.471331   -0.309724   -0.041930
| 32> P       -3.515153    0.680562    0.009165
| 33> H       -3.799713    1.607377   -1.007127
| 34> H       -4.633094   -0.165367   -0.073799
| 35> H       -3.823490    1.429925    1.156436
| 36> *
| 37>
| 38> %maxcore 5000
| 39>
| 40> %pal
| 41> nprocs = 24
| 42> end
| 43>
| 44>
| 45>                          ****END OF INPUT****

CARTESIAN COORDINATES (ANGSTROEM)
---------------------------------
  C      0.302195   -1.452011   -0.105192
  C      1.172851   -0.582511    0.135564
  C      0.213900   -2.914548   -0.330337
  H      1.214756   -3.345744   -0.317276
  H     -0.388020   -3.382295    0.449588
  H     -0.265099   -3.130327   -1.285361
  C      1.829635    0.694580    0.494281
  O      3.171960    0.697894   -0.020842
  C      3.732653   -0.510299   -0.087290
  O      3.070225   -1.500320    0.142290
  C      1.080449    1.884401   -0.190647
  O      0.030957    2.232541    0.278513
  C      1.716450    2.521139   -1.379228
  H      1.946637    1.771224   -2.139595
  H      1.044796    3.276244   -1.779459
  H      2.667103    2.978996   -1.097340
  C      5.172060   -0.490501   -0.447138
  H      5.507658   -1.496958   -0.678577
  H      5.341426    0.179166   -1.290238
  H      5.741456   -0.101237    0.400021
  C      1.875471    0.903584    2.001010
  H      2.434564    1.811885    2.227294
  H      0.861108    1.010944    2.380408
  H      2.353249    0.052039    2.484190
  Au    -1.471331   -0.309724   -0.041930
  P     -3.515153    0.680562    0.009165
  H     -3.799713    1.607377   -1.007127
  H     -4.633094   -0.165367   -0.073799
  H     -3.823490    1.429925    1.156436

 Total Charge           Charge          ....    1
 Multiplicity           Mult            ....    1
 Number of Electrons    NEL             ....  126
 Basis Dimension        Dim             ....  815

ORBITAL ENERGIES
----------------

  NO   OCC          E(Eh)            E(eV)
   0   2.0000     -79.092232     -2152.2091
   1   2.0000     -20.248346      -550.9855
   2   2.0000     -20.192492      -549.4656
   3   2.0000     -20.183068      -549.2092
   4   2.0000     -11.148097      -303.3551
   5   2.0000     -11.104147      -302.1592
   6   2.0000     -11.100529      -302.0607
   7   2.0000     -11.065478      -301.1070
   8   2.0000     -11.016387      -299.7711
   9   2.0000     -10.986021      -298.9448
  10   2.0000     -10.985488      -298.9303
  11   2.0000     -10.979996      -298.7809
  12   2.0000     -10.979163      -298.7582
  13   2.0000      -7.331164      -199.4911
  14   2.0000      -5.322924      -144.8441
  15   2.0000      -5.322903      -144.8436
  16   2.0000      -5.321694      -144.8107
  17   2.0000      -4.671682      -127.1229
  18   2.0000      -2.764410       -75.2234
  19   2.0000      -2.750490       -74.8446
  20   2.0000      -2.750335       -74.8404
  21   2.0000      -1.508437       -41.0467
  22   2.0000      -1.423760       -38.7425
  23   2.0000      -1.395879       -37.9838
  24   2.0000      -1.164343       -31.6834
  25   2.0000      -1.104676       -30.0598
  26   2.0000      -1.054542       -28.6956
  27   2.0000      -1.050914       -28.5968
  28   2.0000      -1.002146       -27.2698
  29   2.0000      -0.959535       -26.1103
  30   2.0000      -0.950813       -25.8729
  31   2.0000      -0.884833       -24.0775
  32   2.0000      -0.848561       -23.0905
  33   2.0000      -0.788770       -21.4635
  34   2.0000      -0.770990       -20.9797
  35   2.0000      -0.753765       -20.5110
  36   2.0000      -0.727092       -19.7852
  37   2.0000      -0.709613       -19.3096
  38   2.0000      -0.700777       -19.0691
  39   2.0000      -0.694134       -18.8883
  40   2.0000      -0.679999       -18.5037
  41   2.0000      -0.665602       -18.1120
  42   2.0000      -0.663380       -18.0515
  43   2.0000      -0.657118       -17.8811
  44   2.0000      -0.655880       -17.8474
  45   2.0000      -0.649147       -17.6642
  46   2.0000      -0.647077       -17.6079
  47   2.0000      -0.641128       -17.4460
  48   2.0000      -0.635315       -17.2878
  49   2.0000      -0.621279       -16.9059
  50   2.0000      -0.617454       -16.8018
  51   2.0000      -0.609403       -16.5827
  52   2.0000      -0.593022       -16.1369
  53   2.0000      -0.580552       -15.7976
  54   2.0000      -0.574642       -15.6368
  55   2.0000      -0.566694       -15.4205
  56   2.0000      -0.562655       -15.3106
  57   2.0000      -0.560362       -15.2482
  58   2.0000      -0.556250       -15.1363
  59   2.0000      -0.515667       -14.0320
  60   2.0000      -0.501929       -13.6582
  61   2.0000      -0.478219       -13.0130
  62   2.0000      -0.471213       -12.8223
  63   0.0000      -0.114463        -3.1147
  64   0.0000      -0.091283        -2.4839
  65   0.0000      -0.075327        -2.0498
  66   0.0000      -0.065470        -1.7815
  67   0.0000      -0.058953        -1.6042

MULLIKEN ATOMIC CHARGES
-----------------------
   0 C :    0.318478
   1 C :   -0.688568
   2 C :   -0.631086
   3 H :    0.054628
   4 H :    0.135477
   5 H :    0.137117
   6 C :    2.883375
   7 O :   -0.404269
   8 C :    0.752931
   9 O :   -0.585038
  10 C :    0.160804
  11 O :   -0.590688
  12 C :   -0.344808
  13 H :    0.077303
  14 H :    0.110371
  15 H :    0.080927
  16 C :   -0.592080
  17 H :    0.117345
  18 H :    0.112375
  19 H :    0.124287
  20 C :   -0.833442
  21 H :    0.090551
  22 H :    0.090582
  23 H :    0.131149
  24 Au:   -0.001172
  25 P :    0.064617
  26 H :    0.078950
  27 H :    0.070337
  28 H :    0.079547
Sum of atomic charges:    1.0000000

LOEWDIN ATOMIC CHARGES
----------------------
   0 C :   -0.223240
   1 C :    0.066576
   2 C :    0.129797
   3 H :   -0.004883
   4 H :   -0.004029
   5 H :   -0.006351
   6 C :   -0.325772
   7 O :    0.044061
   8 C :   -0.379967
   9 O :    0.103671
  10 C :   -0.300215
  11 O :    0.030208
  12 C :    0.238790
  13 H :    0.013445
  14 H :    0.011123
  15 H :    0.015550
  16 C :    0.274065
  17 H :    0.014088
  18 H :    0.015336
  19 H :    0.021378
  20 C :    0.242754
  21 H :    0.021825
  22 H :    0.008448
  23 H :    0.016891
  24 Au:    0.588384
  25 P :    0.871943
  26 H :   -0.160177
  27 H :   -0.165014
  28 H :   -0.158683

  Mayer bond orders larger than 0.100000
B(  0-C ,  1-C ) :   1.0561 B(  0-C ,  2-C ) :   1.1807 B(  0-C ,  6-C ) :  -0.2284
B(  0-C , 24-Au) :   0.5765 B(  1-C ,  2-C ) :  -0.5140 B(  1-C ,  6-C ) :  -0.1312
B(  1-C , 10-C ) :   0.6711 B(  1-C , 20-C ) :   0.3563 B(  1-C , 24-Au) :   0.3142
B(  2-C ,  3-H ) :   1.0833 B(  2-C ,  4-H ) :   0.9882 B(  2-C ,  5-H ) :   0.9841
B(  6-C ,  7-O ) :   0.5250 B(  6-C ,  8-C ) :  -0.1320 B(  6-C , 10-C ) :  -0.2489
B(  6-C , 20-C ) :   0.4910 B(  6-C , 21-H ) :  -0.1020 B(  7-O ,  8-C ) :   1.0848
B(  7-O , 16-C ) :  -0.1044 B(  7-O , 20-C ) :   0.1401 B(  8-C ,  9-O ) :   1.7600
B(  8-C , 16-C ) :   1.0438 B( 10-C , 11-O ) :   1.6523 B( 10-C , 12-C ) :   1.0749
B( 12-C , 13-H ) :   0.9571 B( 12-C , 14-H ) :   1.0351 B( 12-C , 15-H ) :   0.9561
B( 16-C , 17-H ) :   1.0111 B( 16-C , 18-H ) :   0.9899 B( 16-C , 19-H ) :   0.9677
B( 20-C , 21-H ) :   1.0086 B( 20-C , 22-H ) :   1.0229 B( 20-C , 23-H ) :   0.9948
B( 24-Au, 25-P ) :   0.9287 B( 25-P , 26-H ) :   0.9535 B( 25-P , 27-H ) :   0.9592
B( 25-P , 28-H ) :   0.9543

MP2 TOTAL ENERGY:    -1053.662496006 Eh
Dispersion correction           -0.034858936
FINAL SINGLE POINT ENERGY     -1053.697354942375

DIPOLE MOMENT
-------------
                                X             Y             Z
Electronic contribution:   -212.11271     -43.03526      -5.74775
Nuclear contribution   :    212.91002      43.46471       5.39034
                        -----------------------------------------
Total Dipole Moment    :      0.79731       0.42945      -0.35741
                        -----------------------------------------
Magnitude (a.u.)       :      0.97359
Magnitude (Debye)      :      2.47467

Rotational constants in cm-1:     0.027720     0.008314     0.006995
Rotational constants in MHz :   831.016337   249.254276   209.717578

                             ****ORCA TERMINATED NORMALLY****
TOTAL RUN TIME: 0 days 0 hours 1 minutes 20 seconds 439 msec
