                         Program Version 4.2.0 -  RELEASE  -
|  1> #
|  2> # TMB20_T1 ri-DSD-BLYP/2013-D3BJ/Def2-TZVPPD
|  3> #
|  4> ! rijk ri-dsd-blyp/2013 d3bj def2-tzvppd def2/jk def2-tzvppd/c grid4 nofinalgrid
|  5>
|  6> *xyz 0 1
|  7> Re       1.075850    0.159419    0.019780
|  8> C        2.196750   -0.403878   -1.423482
|  9> C        2.402994   -0.436307    1.215711
| 10> C        1.922458    1.855293   -0.011396
| 11> Br      -0.261613   -2.102343    0.064683
| 12> O        2.449833    2.881230   -0.022028
| 13> O        2.868443   -0.722069   -2.296753
| 14> O        3.210599   -0.792996    1.955405
| 15> C       -1.539667    1.495797    1.625423
| 16> C       -0.428781    0.920088    1.558456
| 17> C       -2.591644    1.677755   -0.408432
| 18> C       -3.343269    0.487162   -0.270226
| 19> O       -2.954237   -0.721219   -0.381568
| 20> O       -4.608112    0.658864    0.009021
| 21> C       -1.326616    1.715594   -1.019432
| 22> O       -0.664105    0.697605   -1.265770
| 23> H       -1.956019   -0.923705   -0.405218
| 24> C       -5.425994   -0.504251    0.214760
| 25> H       -6.403655   -0.115620    0.482117
| 26> H       -5.482311   -1.089893   -0.701194
| 27> H       -5.017526   -1.116193    1.017061
| 28> H        0.138084    0.692302    2.461523
| 29> H       -3.155110    2.594425   -0.305352
| 30> H       -2.375145    2.018826    2.037613
| 31> H       -0.897368    2.710605   -1.208716
| 32> *
| 33>
| 34> %maxcore 5000
| 35>
| 36> %pal
| 37> nprocs = 24
| 38> end
| 39>
| 40>
| 41>                          ****END OF INPUT****

CARTESIAN COORDINATES (ANGSTROEM)
---------------------------------
  Re     1.075850    0.159419    0.019780
  C      2.196750   -0.403878   -1.423482
  C      2.402994   -0.436307    1.215711
  C      1.922458    1.855293   -0.011396
  Br    -0.261613   -2.102343    0.064683
  O      2.449833    2.881230   -0.022028
  O      2.868443   -0.722069   -2.296753
  O      3.210599   -0.792996    1.955405
  C     -1.539667    1.495797    1.625423
  C     -0.428781    0.920088    1.558456
  C     -2.591644    1.677755   -0.408432
  C     -3.343269    0.487162   -0.270226
  O     -2.954237   -0.721219   -0.381568
  O     -4.608112    0.658864    0.009021
  C     -1.326616    1.715594   -1.019432
  O     -0.664105    0.697605   -1.265770
  H     -1.956019   -0.923705   -0.405218
  C     -5.425994   -0.504251    0.214760
  H     -6.403655   -0.115620    0.482117
  H     -5.482311   -1.089893   -0.701194
  H     -5.017526   -1.116193    1.017061
  H      0.138084    0.692302    2.461523
  H     -3.155110    2.594425   -0.305352
  H     -2.375145    2.018826    2.037613
  H     -0.897368    2.710605   -1.208716

 Total Charge           Charge          ....    0
 Multiplicity           Mult            ....    1
 Number of Electrons    NEL             ....  160
 Basis Dimension        Dim             ....  825

ORBITAL ENERGIES
----------------

  NO   OCC          E(Eh)            E(eV)
   0   2.0000    -487.388393    -13262.5124
   1   2.0000     -64.140611     -1745.3547
   2   2.0000     -57.660749     -1569.0288
   3   2.0000     -57.660283     -1569.0161
   4   2.0000     -57.660105     -1569.0112
   5   2.0000     -20.164250      -548.6971
   6   2.0000     -20.148510      -548.2688
   7   2.0000     -20.104144      -547.0616
   8   2.0000     -20.099147      -546.9256
   9   2.0000     -20.094719      -546.8051
  10   2.0000     -20.074006      -546.2415
  11   2.0000     -11.084581      -301.6268
  12   2.0000     -10.996144      -299.2203
  13   2.0000     -10.967565      -298.4426
  14   2.0000     -10.966495      -298.4135
  15   2.0000     -10.962265      -298.2984
  16   2.0000     -10.956861      -298.1513
  17   2.0000     -10.946702      -297.8749
  18   2.0000     -10.902998      -296.6857
  19   2.0000     -10.883954      -296.1675
  20   2.0000      -9.360689      -254.7173
  21   2.0000      -7.047454      -191.7710
  22   2.0000      -7.045565      -191.7196
  23   2.0000      -7.044719      -191.6966
  24   2.0000      -3.504525       -95.3630
  25   2.0000      -2.923812       -79.5610
  26   2.0000      -2.923279       -79.5465
  27   2.0000      -2.922408       -79.5228
  28   2.0000      -2.920432       -79.4690
  29   2.0000      -2.920396       -79.4680
  30   2.0000      -1.967027       -53.5255
  31   2.0000      -1.962217       -53.3946
  32   2.0000      -1.962025       -53.3894
  33   2.0000      -1.431471       -38.9523
  34   2.0000      -1.344322       -36.5809
  35   2.0000      -1.338527       -36.4232
  36   2.0000      -1.337256       -36.3886
  37   2.0000      -1.334444       -36.3121
  38   2.0000      -1.306659       -35.5560
  39   2.0000      -1.031888       -28.0791
  40   2.0000      -0.985794       -26.8248
  41   2.0000      -0.939980       -25.5782
  42   2.0000      -0.869423       -23.6582
  43   2.0000      -0.835284       -22.7292
  44   2.0000      -0.808928       -22.0121
  45   2.0000      -0.745996       -20.2996
  46   2.0000      -0.729527       -19.8514
  47   2.0000      -0.720201       -19.5977
  48   2.0000      -0.695046       -18.9132
  49   2.0000      -0.693227       -18.8637
  50   2.0000      -0.682324       -18.5670
  51   2.0000      -0.675219       -18.3736
  52   2.0000      -0.662608       -18.0305
  53   2.0000      -0.629663       -17.1340
  54   2.0000      -0.615845       -16.7580
  55   2.0000      -0.602098       -16.3839
  56   2.0000      -0.595175       -16.1955
  57   2.0000      -0.582057       -15.8386
  58   2.0000      -0.572668       -15.5831
  59   2.0000      -0.572016       -15.5653
  60   2.0000      -0.564192       -15.3525
  61   2.0000      -0.559250       -15.2180
  62   2.0000      -0.556352       -15.1391
  63   2.0000      -0.544816       -14.8252
  64   2.0000      -0.542132       -14.7522
  65   2.0000      -0.538472       -14.6526
  66   2.0000      -0.535230       -14.5644
  67   2.0000      -0.532423       -14.4880
  68   2.0000      -0.530489       -14.4353
  69   2.0000      -0.497350       -13.5336
  70   2.0000      -0.439989       -11.9727
  71   2.0000      -0.428618       -11.6633
  72   2.0000      -0.422024       -11.4839
  73   2.0000      -0.370026       -10.0689
  74   2.0000      -0.363607        -9.8943
  75   2.0000      -0.348916        -9.4945
  76   2.0000      -0.342265        -9.3135
  77   2.0000      -0.296025        -8.0553
  78   2.0000      -0.289427        -7.8757
  79   2.0000      -0.282284        -7.6813
  80   0.0000      -0.016967        -0.4617
  81   0.0000      -0.003785        -0.1030
  82   0.0000       0.013896         0.3781
  83   0.0000       0.030809         0.8384
  84   0.0000       0.042238         1.1494

MULLIKEN ATOMIC CHARGES
-----------------------
   0 Re:    0.559323
   1 C :    0.627835
   2 C :    0.350213
   3 C :    0.148952
   4 Br:   -0.760641
   5 O :   -0.434688
   6 O :   -0.406471
   7 O :   -0.427631
   8 C :   -0.112172
   9 C :    0.369525
  10 C :   -0.036776
  11 C :    0.815364
  12 O :   -0.386830
  13 O :   -0.326703
  14 C :    0.400681
  15 O :   -0.774628
  16 H :    0.349319
  17 C :   -0.066492
  18 H :    0.058039
  19 H :    0.112861
  20 H :    0.119215
  21 H :   -0.136369
  22 H :    0.040824
  23 H :   -0.031484
  24 H :   -0.051266
Sum of atomic charges:   -0.0000000

LOEWDIN ATOMIC CHARGES
----------------------
   0 Re:    0.524924
   1 C :   -0.247920
   2 C :   -0.306496
   3 C :   -0.250261
   4 Br:    0.204274
   5 O :    0.061667
   6 O :    0.089095
   7 O :    0.068486
   8 C :    0.219330
   9 C :   -0.059946
  10 C :    0.035898
  11 C :   -0.309473
  12 O :    0.290195
  13 O :    0.029771
  14 C :   -0.164691
  15 O :   -0.177273
  16 H :   -0.300724
  17 C :    0.216860
  18 H :    0.017309
  19 H :    0.020765
  20 H :    0.021058
  21 H :   -0.032107
  22 H :    0.022671
  23 H :   -0.030174
  24 H :    0.056764

  Mayer bond orders larger than 0.100000
B(  0-Re,  1-C ) :   1.2919 B(  0-Re,  2-C ) :   1.4146 B(  0-Re,  3-C ) :   1.3988
B(  0-Re,  4-Br) :   0.2755 B(  0-Re,  9-C ) :   0.4592 B(  0-Re, 15-O ) :   0.2733
B(  1-C ,  2-C ) :  -0.1497 B(  1-C ,  6-O ) :   2.0909 B(  1-C ,  8-C ) :   0.1045
B(  2-C ,  7-O ) :   2.0435 B(  3-C ,  5-O ) :   2.0316 B(  8-C ,  9-C ) :   1.7422
B(  8-C , 11-C ) :   0.1902 B(  8-C , 14-C ) :   0.1339 B(  8-C , 23-H ) :   1.1882
B(  9-C , 21-H ) :   1.0414 B(  9-C , 23-H ) :  -0.1780 B( 10-C , 11-C ) :   0.9593
B( 10-C , 14-C ) :   1.2212 B( 10-C , 22-H ) :   1.1327 B( 11-C , 12-O ) :   1.0720
B( 11-C , 13-O ) :   0.9288 B( 12-O , 16-H ) :   0.7586 B( 13-O , 17-C ) :   0.8114
B( 14-C , 15-O ) :   1.3113 B( 14-C , 24-H ) :   1.0516 B( 17-C , 18-H ) :   1.0537
B( 17-C , 19-H ) :   0.9859 B( 17-C , 20-H ) :   0.9837

MP2 TOTAL ENERGY:    -3450.267196051 Eh
Dispersion correction           -0.040540505
FINAL SINGLE POINT ENERGY     -3450.307736556210

DIPOLE MOMENT
-------------
                                X             Y             Z
Electronic contribution:    156.25978       7.48537       1.64174
Nuclear contribution   :   -160.68759      -5.62073      -0.99353
                        -----------------------------------------
Total Dipole Moment    :     -4.42781       1.86463       0.64821
                        -----------------------------------------
Magnitude (a.u.)       :      4.84795
Magnitude (Debye)      :     12.32250

Rotational constants in cm-1:     0.016566     0.007303     0.006214
Rotational constants in MHz :   496.645586   218.925333   186.291690

                             ****ORCA TERMINATED NORMALLY****
TOTAL RUN TIME: 0 days 0 hours 1 minutes 40 seconds 303 msec
