                         Program Version 4.2.0 -  RELEASE  -
|  1> #
|  2> # TMB20_T3 ri-DSD-BLYP/2013-D3BJ/Def2-TZVPPD
|  3> #
|  4> ! rijk ri-dsd-blyp/2013 d3bj def2-tzvppd def2/jk def2-tzvppd/c grid4 nofinalgrid
|  5>
|  6> *xyz 0 1
|  7> Re      -0.699337    0.269974   -0.016922
|  8> C       -1.517494    1.171658    1.511937
|  9> C       -2.128741    0.734814   -1.269556
| 10> C        0.006415    1.979914   -0.520985
| 11> Br      -2.293994   -1.692635    0.422377
| 12> O        0.401983    3.017146   -0.812479
| 13> O       -1.978437    1.683611    2.420736
| 14> O       -2.925520    0.985618   -2.040062
| 15> C        1.682445   -0.880018   -1.649716
| 16> C        0.364751   -1.082540   -1.469297
| 17> C        2.354559    0.058914   -0.699791
| 18> C        3.755152   -0.401179   -0.311110
| 19> O        4.391770   -1.216840   -0.916463
| 20> O        4.190730    0.250058    0.766853
| 21> C        1.438220    0.283372    0.494253
| 22> O        0.848413   -0.807036    1.012308
| 23> H        0.600901   -1.340620   -0.125835
| 24> C        5.512413   -0.088930    1.195157
| 25> H        5.700542    0.516294    2.077458
| 26> H        5.571154   -1.149548    1.436871
| 27> H        6.234349    0.138790    0.411497
| 28> H       -0.156995   -1.792005   -2.102193
| 29> H        2.493970    1.031893   -1.188973
| 30> H        1.754916    1.016172    1.230092
| 31> H        2.303398   -1.383326   -2.385460
| 32> *
| 33>
| 34> %maxcore 5000
| 35>
| 36> %pal
| 37> nprocs = 24
| 38> end
| 39>
| 40>
| 41>                          ****END OF INPUT****

CARTESIAN COORDINATES (ANGSTROEM)
---------------------------------
  Re    -0.699337    0.269974   -0.016922
  C     -1.517494    1.171658    1.511937
  C     -2.128741    0.734814   -1.269556
  C      0.006415    1.979914   -0.520985
  Br    -2.293994   -1.692635    0.422377
  O      0.401983    3.017146   -0.812479
  O     -1.978437    1.683611    2.420736
  O     -2.925520    0.985618   -2.040062
  C      1.682445   -0.880018   -1.649716
  C      0.364751   -1.082540   -1.469297
  C      2.354559    0.058914   -0.699791
  C      3.755152   -0.401179   -0.311110
  O      4.391770   -1.216840   -0.916463
  O      4.190730    0.250058    0.766853
  C      1.438220    0.283372    0.494253
  O      0.848413   -0.807036    1.012308
  H      0.600901   -1.340620   -0.125835
  C      5.512413   -0.088930    1.195157
  H      5.700542    0.516294    2.077458
  H      5.571154   -1.149548    1.436871
  H      6.234349    0.138790    0.411497
  H     -0.156995   -1.792005   -2.102193
  H      2.493970    1.031893   -1.188973
  H      1.754916    1.016172    1.230092
  H      2.303398   -1.383326   -2.385460

 Total Charge           Charge          ....    0
 Multiplicity           Mult            ....    1
 Number of Electrons    NEL             ....  160
 Basis Dimension        Dim             ....  825

ORBITAL ENERGIES
----------------

  NO   OCC          E(Eh)            E(eV)
   0   2.0000    -487.404591    -13262.9532
   1   2.0000     -64.156598     -1745.7898
   2   2.0000     -57.677048     -1569.4723
   3   2.0000     -57.676071     -1569.4457
   4   2.0000     -57.675915     -1569.4414
   5   2.0000     -20.164297      -548.6984
   6   2.0000     -20.148882      -548.2790
   7   2.0000     -20.148587      -548.2709
   8   2.0000     -20.127020      -547.6841
   9   2.0000     -20.119153      -547.4700
  10   2.0000     -20.067664      -546.0689
  11   2.0000     -11.031430      -300.1805
  12   2.0000     -11.025277      -300.0130
  13   2.0000     -11.022955      -299.9499
  14   2.0000     -11.008757      -299.5635
  15   2.0000     -10.988913      -299.0235
  16   2.0000     -10.931150      -297.4517
  17   2.0000     -10.923757      -297.2505
  18   2.0000     -10.914288      -296.9929
  19   2.0000     -10.862607      -295.5866
  20   2.0000      -9.376666      -255.1520
  21   2.0000      -7.064609      -192.2378
  22   2.0000      -7.060638      -192.1297
  23   2.0000      -7.060056      -192.1139
  24   2.0000      -3.565205       -97.0141
  25   2.0000      -2.941016       -80.0291
  26   2.0000      -2.939699       -79.9933
  27   2.0000      -2.939098       -79.9769
  28   2.0000      -2.934985       -79.8650
  29   2.0000      -2.934973       -79.8647
  30   2.0000      -2.029244       -55.2185
  31   2.0000      -2.022858       -55.0448
  32   2.0000      -2.014496       -54.8172
  33   2.0000      -1.405796       -38.2536
  34   2.0000      -1.391081       -37.8532
  35   2.0000      -1.389370       -37.8067
  36   2.0000      -1.377447       -37.4822
  37   2.0000      -1.319425       -35.9034
  38   2.0000      -1.279136       -34.8071
  39   2.0000      -1.052772       -28.6474
  40   2.0000      -0.957306       -26.0496
  41   2.0000      -0.903681       -24.5904
  42   2.0000      -0.876404       -23.8482
  43   2.0000      -0.822699       -22.3868
  44   2.0000      -0.769149       -20.9296
  45   2.0000      -0.749658       -20.3992
  46   2.0000      -0.744934       -20.2707
  47   2.0000      -0.736719       -20.0472
  48   2.0000      -0.732217       -19.9246
  49   2.0000      -0.694069       -18.8866
  50   2.0000      -0.672521       -18.3002
  51   2.0000      -0.658504       -17.9188
  52   2.0000      -0.644000       -17.5241
  53   2.0000      -0.637431       -17.3454
  54   2.0000      -0.627510       -17.0754
  55   2.0000      -0.620443       -16.8831
  56   2.0000      -0.614708       -16.7270
  57   2.0000      -0.610578       -16.6147
  58   2.0000      -0.604428       -16.4473
  59   2.0000      -0.595890       -16.2150
  60   2.0000      -0.592183       -16.1141
  61   2.0000      -0.589419       -16.0389
  62   2.0000      -0.583332       -15.8733
  63   2.0000      -0.581700       -15.8289
  64   2.0000      -0.570440       -15.5225
  65   2.0000      -0.555427       -15.1139
  66   2.0000      -0.531634       -14.4665
  67   2.0000      -0.515421       -14.0253
  68   2.0000      -0.503025       -13.6880
  69   2.0000      -0.494321       -13.4512
  70   2.0000      -0.443591       -12.0707
  71   2.0000      -0.441334       -12.0093
  72   2.0000      -0.403820       -10.9885
  73   2.0000      -0.396391       -10.7864
  74   2.0000      -0.385186       -10.4814
  75   2.0000      -0.378356       -10.2956
  76   2.0000      -0.363318        -9.8864
  77   2.0000      -0.340737        -9.2719
  78   2.0000      -0.327268        -8.9054
  79   2.0000      -0.310497        -8.4491
  80   0.0000      -0.017834        -0.4853
  81   0.0000       0.005261         0.1431
  82   0.0000       0.021021         0.5720
  83   0.0000       0.035179         0.9573
  84   0.0000       0.037666         1.0249

MULLIKEN ATOMIC CHARGES
-----------------------
   0 Re:    0.670800
   1 C :    0.552405
   2 C :    0.462642
   3 C :   -0.023552
   4 Br:   -0.647232
   5 O :   -0.410144
   6 O :   -0.357135
   7 O :   -0.329681
   8 C :   -0.634798
   9 C :    0.114374
  10 C :    1.666221
  11 C :   -0.187913
  12 O :   -0.605521
  13 O :   -0.287051
  14 C :    0.288111
  15 O :   -0.628620
  16 H :    0.210462
  17 C :   -0.055248
  18 H :    0.056836
  19 H :    0.101334
  20 H :    0.101142
  21 H :   -0.091342
  22 H :    0.090117
  23 H :    0.043605
  24 H :   -0.099810
Sum of atomic charges:   -0.0000000

LOEWDIN ATOMIC CHARGES
----------------------
   0 Re:    0.604325
   1 C :   -0.215316
   2 C :   -0.251001
   3 C :   -0.232323
   4 Br:    0.128682
   5 O :    0.122272
   6 O :    0.119812
   7 O :    0.140656
   8 C :    0.063054
   9 C :   -0.000079
  10 C :   -0.089554
  11 C :   -0.405196
  12 O :    0.111228
  13 O :   -0.009522
  14 C :   -0.169883
  15 O :   -0.068710
  16 H :   -0.158361
  17 C :    0.188370
  18 H :    0.012080
  19 H :    0.016161
  20 H :    0.014761
  21 H :   -0.042995
  22 H :    0.059125
  23 H :    0.038076
  24 H :    0.024342

  Mayer bond orders larger than 0.100000
B(  0-Re,  1-C ) :   1.1306 B(  0-Re,  2-C ) :   0.9561 B(  0-Re,  3-C ) :   1.2555
B(  0-Re,  4-Br) :   0.3632 B(  0-Re,  8-C ) :   0.1270 B(  0-Re,  9-C ) :   0.4691
B(  0-Re, 14-C ) :   0.4988 B(  0-Re, 15-O ) :   0.5214 B(  0-Re, 16-H ) :   0.1237
B(  1-C ,  2-C ) :  -0.1516 B(  1-C ,  6-O ) :   2.1771 B(  2-C ,  7-O ) :   2.1937
B(  3-C ,  5-O ) :   2.0324 B(  3-C ,  8-C ) :  -0.1153 B(  3-C , 10-C ) :   0.1125
B(  3-C , 14-C ) :   0.2190 B(  8-C ,  9-C ) :   1.7347 B(  8-C , 10-C ) :   0.4781
B(  8-C , 11-C ) :   0.2836 B(  8-C , 16-H ) :   0.1731 B(  8-C , 24-H ) :   1.2468
B(  9-C , 10-C ) :  -0.1326 B(  9-C , 14-C ) :  -0.1200 B(  9-C , 16-H ) :   0.4686
B(  9-C , 21-H ) :   1.1000 B(  9-C , 24-H ) :  -0.1124 B( 10-C , 11-C ) :  -0.1249
B( 10-C , 12-O ) :  -0.1103 B( 10-C , 14-C ) :   0.9836 B( 10-C , 22-H ) :   0.8350
B( 10-C , 24-H ) :  -0.1836 B( 11-C , 12-O ) :   1.7542 B( 11-C , 13-O ) :   0.9402
B( 11-C , 14-C ) :   0.3322 B( 13-O , 17-C ) :   0.7686 B( 14-C , 15-O ) :   0.7998
B( 14-C , 23-H ) :   0.9919 B( 15-O , 16-H ) :   0.3217 B( 17-C , 18-H ) :   1.0648
B( 17-C , 19-H ) :   0.9936 B( 17-C , 20-H ) :   0.9843

MP2 TOTAL ENERGY:    -3450.296508832 Eh
Dispersion correction           -0.041784908
FINAL SINGLE POINT ENERGY     -3450.338293739946

DIPOLE MOMENT
-------------
                                X             Y             Z
Electronic contribution:   -122.78890      29.25616       0.51240
Nuclear contribution   :    124.94821     -28.06424      -0.72382
                        -----------------------------------------
Total Dipole Moment    :      2.15931       1.19191      -0.21141
                        -----------------------------------------
Magnitude (a.u.)       :      2.47547
Magnitude (Debye)      :      6.29216

Rotational constants in cm-1:     0.017375     0.006623     0.006112
Rotational constants in MHz :   520.879987   198.539547   183.234187

                             ****ORCA TERMINATED NORMALLY****
TOTAL RUN TIME: 0 days 0 hours 1 minutes 41 seconds 105 msec
