                         Program Version 4.2.0 -  RELEASE  -
|  1> #
|  2> # TMB26_T1 ri-DSD-BLYP/2013-D3BJ/Def2-TZVPPD
|  3> #
|  4> ! rijk ri-dsd-blyp/2013 d3bj def2-tzvppd def2/jk def2-tzvppd/c grid4 nofinalgrid
|  5>
|  6> *xyz 0 1
|  7> C       -2.466566    1.069840    0.238308
|  8> C       -2.451721    0.070166    1.223311
|  9> C       -3.390268   -0.966147    1.168446
| 10> C       -4.328348   -1.022612    0.143865
| 11> C       -4.333048   -0.013813   -0.819144
| 12> C       -3.403006    1.027077   -0.774806
| 13> H       -1.851874    0.172622    2.118430
| 14> H       -5.044959   -1.827220    0.098719
| 15> H       -3.408268    1.764270   -1.566273
| 16> C       -1.433505    2.123552    0.250561
| 17> C       -1.778108    3.466931    0.185146
| 18> C       -0.064979    1.782593    0.286078
| 19> C       -0.802488    4.453319    0.169404
| 20> H       -2.826505    3.739000    0.161874
| 21> C        0.907771    2.775168    0.263672
| 22> C        0.538977    4.108677    0.211691
| 23> H       -1.095064    5.495288    0.125305
| 24> H        1.951961    2.493561    0.298441
| 25> H        1.301937    4.876538    0.199556
| 26> C        0.257789    0.377788    0.312230
| 27> C       -0.304042   -0.722217    0.502541
| 28> H       -0.515543   -1.762216    0.625327
| 29> Au       2.138195   -0.491597   -0.140080
| 30> Cl       1.419476   -1.043843   -2.240555
| 31> Cl       4.263347   -1.139807   -0.651257
| 32> Cl       2.780432    0.097050    1.979491
| 33> O       -3.309425   -1.870502    2.160546
| 34> O       -5.195970    0.025756   -1.845512
| 35> C       -4.244039   -2.927838    2.190952
| 36> H       -4.158173   -3.562934    1.304307
| 37> H       -4.005337   -3.514103    3.075014
| 38> H       -5.267556   -2.550903    2.273203
| 39> C       -6.143948   -1.010635   -1.979012
| 40> H       -6.717344   -0.779100   -2.873359
| 41> H       -5.656738   -1.981777   -2.105696
| 42> H       -6.818943   -1.047780   -1.118843
| 43> *
| 44>
| 45> %maxcore 5000
| 46>
| 47> %pal
| 48> nprocs = 24
| 49> end
| 50>
| 51>
| 52>                          ****END OF INPUT****

CARTESIAN COORDINATES (ANGSTROEM)
---------------------------------
  C     -2.466566    1.069840    0.238308
  C     -2.451721    0.070166    1.223311
  C     -3.390268   -0.966147    1.168446
  C     -4.328348   -1.022612    0.143865
  C     -4.333048   -0.013813   -0.819144
  C     -3.403006    1.027077   -0.774806
  H     -1.851874    0.172622    2.118430
  H     -5.044959   -1.827220    0.098719
  H     -3.408268    1.764270   -1.566273
  C     -1.433505    2.123552    0.250561
  C     -1.778108    3.466931    0.185146
  C     -0.064979    1.782593    0.286078
  C     -0.802488    4.453319    0.169404
  H     -2.826505    3.739000    0.161874
  C      0.907771    2.775168    0.263672
  C      0.538977    4.108677    0.211691
  H     -1.095064    5.495288    0.125305
  H      1.951961    2.493561    0.298441
  H      1.301937    4.876538    0.199556
  C      0.257789    0.377788    0.312230
  C     -0.304042   -0.722217    0.502541
  H     -0.515543   -1.762216    0.625327
  Au     2.138195   -0.491597   -0.140080
  Cl     1.419476   -1.043843   -2.240555
  Cl     4.263347   -1.139807   -0.651257
  Cl     2.780432    0.097050    1.979491
  O     -3.309425   -1.870502    2.160546
  O     -5.195970    0.025756   -1.845512
  C     -4.244039   -2.927838    2.190952
  H     -4.158173   -3.562934    1.304307
  H     -4.005337   -3.514103    3.075014
  H     -5.267556   -2.550903    2.273203
  C     -6.143948   -1.010635   -1.979012
  H     -6.717344   -0.779100   -2.873359
  H     -5.656738   -1.981777   -2.105696
  H     -6.818943   -1.047780   -1.118843

 Total Charge           Charge          ....    0
 Multiplicity           Mult            ....    1
 Number of Electrons    NEL             ....  196
 Basis Dimension        Dim             .... 1122

ORBITAL ENERGIES
----------------

  NO   OCC          E(Eh)            E(eV)
   0   2.0000    -103.608626     -2819.3341
   1   2.0000    -103.608167     -2819.3215
   2   2.0000    -103.598367     -2819.0549
   3   2.0000     -20.113014      -547.3029
   4   2.0000     -20.109376      -547.2039
   5   2.0000     -10.963889      -298.3426
   6   2.0000     -10.962872      -298.3149
   7   2.0000     -10.959580      -298.2253
   8   2.0000     -10.935886      -297.5806
   9   2.0000     -10.933957      -297.5281
  10   2.0000     -10.933051      -297.5035
  11   2.0000     -10.912751      -296.9511
  12   2.0000     -10.909436      -296.8608
  13   2.0000     -10.905229      -296.7464
  14   2.0000     -10.889147      -296.3088
  15   2.0000     -10.887969      -296.2767
  16   2.0000     -10.885517      -296.2100
  17   2.0000     -10.883660      -296.1595
  18   2.0000     -10.881742      -296.1072
  19   2.0000     -10.880207      -296.0655
  20   2.0000     -10.873088      -295.8718
  21   2.0000     -10.124078      -275.4902
  22   2.0000     -10.123557      -275.4760
  23   2.0000     -10.113738      -275.2088
  24   2.0000      -7.697398      -209.4569
  25   2.0000      -7.696899      -209.4433
  26   2.0000      -7.694180      -209.3693
  27   2.0000      -7.693952      -209.3631
  28   2.0000      -7.693654      -209.3550
  29   2.0000      -7.693384      -209.3476
  30   2.0000      -7.687162      -209.1783
  31   2.0000      -7.683753      -209.0855
  32   2.0000      -7.683439      -209.0770
  33   2.0000      -4.644937      -126.3951
  34   2.0000      -2.727516       -74.2195
  35   2.0000      -2.725923       -74.1761
  36   2.0000      -2.711348       -73.7795
  37   2.0000      -1.335190       -36.3324
  38   2.0000      -1.331695       -36.2373
  39   2.0000      -1.112175       -30.2638
  40   2.0000      -1.075753       -29.2727
  41   2.0000      -1.034617       -28.1534
  42   2.0000      -0.992874       -27.0175
  43   2.0000      -0.972066       -26.4513
  44   2.0000      -0.958258       -26.0755
  45   2.0000      -0.951559       -25.8932
  46   2.0000      -0.937421       -25.5085
  47   2.0000      -0.933097       -25.3909
  48   2.0000      -0.932403       -25.3720
  49   2.0000      -0.912584       -24.8327
  50   2.0000      -0.874584       -23.7986
  51   2.0000      -0.816564       -22.2198
  52   2.0000      -0.801864       -21.8198
  53   2.0000      -0.779191       -21.2029
  54   2.0000      -0.753741       -20.5103
  55   2.0000      -0.728138       -19.8136
  56   2.0000      -0.704210       -19.1625
  57   2.0000      -0.672293       -18.2940
  58   2.0000      -0.666954       -18.1488
  59   2.0000      -0.643543       -17.5117
  60   2.0000      -0.636454       -17.3188
  61   2.0000      -0.632208       -17.2033
  62   2.0000      -0.624072       -16.9819
  63   2.0000      -0.622408       -16.9366
  64   2.0000      -0.615182       -16.7400
  65   2.0000      -0.588695       -16.0192
  66   2.0000      -0.580616       -15.7994
  67   2.0000      -0.575679       -15.6650
  68   2.0000      -0.569833       -15.5059
  69   2.0000      -0.562473       -15.3057
  70   2.0000      -0.552414       -15.0319
  71   2.0000      -0.547471       -14.8975
  72   2.0000      -0.539716       -14.6864
  73   2.0000      -0.529403       -14.4058
  74   2.0000      -0.523567       -14.2470
  75   2.0000      -0.519793       -14.1443
  76   2.0000      -0.515338       -14.0231
  77   2.0000      -0.503869       -13.7110
  78   2.0000      -0.489376       -13.3166
  79   2.0000      -0.485900       -13.2220
  80   2.0000      -0.482495       -13.1294
  81   2.0000      -0.473355       -12.8806
  82   2.0000      -0.469970       -12.7885
  83   2.0000      -0.458714       -12.4822
  84   2.0000      -0.439639       -11.9632
  85   2.0000      -0.432103       -11.7581
  86   2.0000      -0.417623       -11.3641
  87   2.0000      -0.397598       -10.8192
  88   2.0000      -0.393148       -10.6981
  89   2.0000      -0.369480       -10.0541
  90   2.0000      -0.364583        -9.9208
  91   2.0000      -0.358364        -9.7516
  92   2.0000      -0.357287        -9.7223
  93   2.0000      -0.356803        -9.7091
  94   2.0000      -0.345442        -9.4000
  95   2.0000      -0.333478        -9.0744
  96   2.0000      -0.317944        -8.6517
  97   2.0000      -0.304182        -8.2772
  98   0.0000      -0.062602        -1.7035
  99   0.0000      -0.007935        -0.2159
 100   0.0000       0.014386         0.3915
 101   0.0000       0.017075         0.4646
 102   0.0000       0.030675         0.8347

MULLIKEN ATOMIC CHARGES
-----------------------
   0 C :    1.917855
   1 C :   -0.335219
   2 C :    0.293640
   3 C :    0.008659
   4 C :    0.327558
   5 C :   -0.788042
   6 H :   -0.064013
   7 H :   -0.145463
   8 H :   -0.081013
   9 C :    0.435836
  10 C :   -0.122497
  11 C :    0.795325
  12 C :   -0.133500
  13 H :   -0.057536
  14 C :   -0.257342
  15 C :   -0.126903
  16 H :   -0.036564
  17 H :   -0.135093
  18 H :   -0.036927
  19 C :    0.759159
  20 C :    0.039329
  21 H :   -0.175855
  22 Au:    0.156455
  23 Cl:   -0.533354
  24 Cl:   -0.484197
  25 Cl:   -0.553255
  26 O :   -0.452579
  27 O :   -0.446326
  28 C :   -0.167615
  29 H :    0.107703
  30 H :    0.045284
  31 H :    0.119171
  32 C :   -0.131682
  33 H :    0.041560
  34 H :    0.111703
  35 H :    0.105736
Sum of atomic charges:    0.0000000

LOEWDIN ATOMIC CHARGES
----------------------
   0 C :   -0.124893
   1 C :    0.062281
   2 C :   -0.213544
   3 C :    0.130861
   4 C :   -0.200059
   5 C :    0.131281
   6 H :    0.035352
   7 H :   -0.014545
   8 H :    0.030084
   9 C :   -0.087911
  10 C :    0.069616
  11 C :   -0.153677
  12 C :    0.042144
  13 H :    0.017354
  14 C :    0.060091
  15 C :    0.040359
  16 H :    0.006824
  17 H :   -0.011206
  18 H :    0.007228
  19 C :   -0.313431
  20 C :    0.224325
  21 H :   -0.009835
  22 Au:    0.275181
  23 Cl:   -0.080142
  24 Cl:   -0.145482
  25 Cl:   -0.059583
  26 O :   -0.045525
  27 O :   -0.038927
  28 C :    0.141359
  29 H :    0.013798
  30 H :    0.014470
  31 H :    0.014395
  32 C :    0.140133
  33 H :    0.014180
  34 H :    0.014259
  35 H :    0.013183

  Mayer bond orders larger than 0.100000
B(  0-C ,  3-C ) :  -0.4001 B(  0-C ,  5-C ) :   0.2616 B(  0-C ,  6-H ) :  -0.4867
B(  0-C ,  8-H ) :  -0.2716 B(  0-C ,  9-C ) :  -1.6135 B(  0-C , 10-C ) :  -0.2934
B(  0-C , 12-C ) :  -0.2182 B(  0-C , 14-C ) :  -0.1084 B(  0-C , 15-C ) :   0.1056
B(  0-C , 19-C ) :  -0.1663 B(  0-C , 20-C ) :   0.1787 B(  1-C ,  2-C ) :   1.0224
B(  1-C ,  3-C ) :  -0.1846 B(  1-C ,  5-C ) :   0.3599 B(  1-C ,  6-H ) :   1.3648
B(  1-C ,  9-C ) :  -0.1530 B(  1-C , 10-C ) :   0.7203 B(  1-C , 12-C ) :  -0.2373
B(  1-C , 14-C ) :  -0.1847 B(  1-C , 15-C ) :   0.1537 B(  1-C , 20-C ) :   0.1637
B(  1-C , 26-O ) :  -0.2398 B(  2-C ,  3-C ) :   1.3164 B(  2-C ,  4-C ) :   0.2532
B(  2-C ,  5-C ) :  -0.2083 B(  2-C ,  6-H ) :   0.1921 B(  2-C ,  7-H ) :  -0.1679
B(  2-C , 10-C ) :  -0.4446 B(  2-C , 12-C ) :   0.1991 B(  2-C , 14-C ) :   0.1978
B(  2-C , 15-C ) :  -0.1139 B(  2-C , 20-C ) :  -0.1212 B(  2-C , 26-O ) :   0.8120
B(  3-C ,  4-C ) :   1.2419 B(  3-C ,  5-C ) :  -0.1273 B(  3-C ,  7-H ) :   1.1562
B(  3-C ,  9-C ) :   0.3440 B(  3-C , 10-C ) :   0.2619 B(  3-C , 11-C ) :  -0.1301
B(  3-C , 20-C ) :   0.1033 B(  3-C , 27-O ) :  -0.1054 B(  4-C ,  5-C ) :   1.2527
B(  4-C ,  7-H ) :  -0.1282 B(  4-C ,  9-C ) :  -0.1485 B(  4-C , 10-C ) :  -0.3450
B(  4-C , 11-C ) :   0.1149 B(  4-C , 12-C ) :   0.1340 B(  4-C , 14-C ) :   0.1391
B(  4-C , 27-O ) :   0.9155 B(  5-C ,  8-H ) :   1.2450 B(  5-C ,  9-C ) :  -0.2122
B(  5-C , 10-C ) :   0.4988 B(  5-C , 11-C ) :  -0.1581 B(  5-C , 12-C ) :  -0.1128
B(  5-C , 14-C ) :  -0.1675 B(  5-C , 20-C ) :   0.1530 B(  5-C , 27-O ) :  -0.1580
B(  9-C , 10-C ) :   0.3291 B(  9-C , 11-C ) :   0.6792 B(  9-C , 12-C ) :   0.1739
B(  9-C , 13-H ) :  -0.2184 B(  9-C , 15-C ) :  -0.1282 B(  9-C , 19-C ) :  -0.1394
B( 10-C , 12-C ) :   1.1739 B( 10-C , 13-H ) :   1.1643 B( 10-C , 16-H ) :  -0.1071
B( 11-C , 14-C ) :   1.0163 B( 11-C , 17-H ) :  -0.2698 B( 11-C , 19-C ) :  -0.3720
B( 11-C , 22-Au) :  -0.6587 B( 11-C , 25-Cl) :  -0.3023 B( 12-C , 13-H ) :  -0.1182
B( 12-C , 15-C ) :   1.1635 B( 12-C , 16-H ) :   1.1287 B( 12-C , 18-H ) :  -0.1297
B( 14-C , 15-C ) :   1.1177 B( 14-C , 17-H ) :   1.2291 B( 14-C , 18-H ) :  -0.1029
B( 15-C , 16-H ) :  -0.1253 B( 15-C , 17-H ) :  -0.1451 B( 15-C , 18-H ) :   1.1339
B( 19-C , 20-C ) :   1.3673 B( 19-C , 21-H ) :  -0.3751 B( 19-C , 22-Au) :   0.4135
B( 19-C , 23-Cl) :  -0.1380 B( 19-C , 25-Cl) :   0.2433 B( 20-C , 21-H ) :   1.3712
B( 20-C , 22-Au) :   0.2432 B( 20-C , 23-Cl) :  -0.2678 B( 20-C , 25-Cl) :  -0.3513
B( 22-Au, 23-Cl) :   1.0045 B( 22-Au, 24-Cl) :   0.7602 B( 22-Au, 25-Cl) :   1.0102
B( 23-Cl, 25-Cl) :   0.1126 B( 26-O , 28-C ) :   0.8984 B( 27-O , 32-C ) :   0.8775
B( 28-C , 29-H ) :   0.9792 B( 28-C , 30-H ) :   1.0987 B( 28-C , 31-H ) :   0.9871
B( 32-C , 33-H ) :   1.0941 B( 32-C , 34-H ) :   0.9892 B( 32-C , 35-H ) :   0.9862

MP2 TOTAL ENERGY:    -2283.389917016 Eh
Dispersion correction           -0.057859301
FINAL SINGLE POINT ENERGY     -2283.447776317071

DIPOLE MOMENT
-------------
                                X             Y             Z
Electronic contribution:    332.36510     -71.51481     -21.63304
Nuclear contribution   :   -337.50313      71.82916      22.27008
                        -----------------------------------------
Total Dipole Moment    :     -5.13803       0.31435       0.63704
                        -----------------------------------------
Magnitude (a.u.)       :      5.18690
Magnitude (Debye)      :     13.18406

Rotational constants in cm-1:     0.008801     0.003370     0.003018
Rotational constants in MHz :   263.837003   101.042363    90.466575

                             ****ORCA TERMINATED NORMALLY****
TOTAL RUN TIME: 0 days 0 hours 3 minutes 19 seconds 936 msec
