                         Program Version 4.2.0 -  RELEASE  -
|  1> # input to generate an atomic fitting density for Au
|  2> # this file is use internally by ORCA
|  3> #
|  4> # atomic ground state (S=2): 1s2 2s2 2p6 3s2 3p6 4s2 3d10 4p6 5s2 4d10 5p6 6s1 4f14 5d10
|  5> #
|  6> ! RHF AllowRHF def2-SVP def2/J  NoMulliken NoLoewdin NoMayer NoPrintMOs
|  7>
|  8> %output print[p_atomdensfit] 2 end
|  9>
| 10> %scf
| 11>   guess hcore
| 12>   maxiter 1000
| 13>   maxdisk 500000
| 14>   SCFMode Conventional
| 15>   lshift 1.000000
| 16>   hftyp rohf
| 17>   rohf_case sahf
| 18>   rohf_numop   2
| 19>   rohf_norb[1] 1
| 20>   rohf_nel[1]  1
| 21> end
| 22>
| 23> %basis
| 24>   NewECP 79
| 25>     N_core 60
| 26>     lmax f
| 27>     s 4
| 28>       1      13.2051000000    426.8466792000  2
| 29>       2       6.6025500000     37.0070829000  2
| 30>       3       4.7898200000    -30.4900889000  2
| 31>       4       2.3949100000     -5.1710738000  2
| 32>     p 4
| 33>       1      10.4520200000    261.1995804000  2
| 34>       2       5.2260100000     26.9624960000  2
| 35>       3       4.7898200000    -30.4900889000  2
| 36>       4       2.3949100000     -5.1710738000  2
| 37>     d 4
| 38>       1       7.8511000000    124.7906656000  2
| 39>       2       3.9255500000     16.3007257000  2
| 40>       3       4.7898200000    -30.4900889000  2
| 41>       4       2.3949100000     -5.1710738000  2
| 42>     f 2
| 43>       1       4.7898200000     30.4900889000  2
| 44>       2       2.3949100000      5.1710738000  2
| 45>   end
| 46>   NewGTO 79
| 47>     s 3
| 48>      1      30.0000000000      0.7878815859
| 49>      2      27.0000000000     -1.2632352720
| 50>      3      14.7468243310      1.4544194336
| 51>     s 1
| 52>      1       5.6017248938      1.0000000000
| 53>     s 1
| 54>      1       1.3874162443      1.0000000000
| 55>     s 1
| 56>      1       0.6292303196      1.0000000000
| 57>     s 1
| 58>      1       0.1402751761      1.0000000000
| 59>     s 1
| 60>      1       0.0493794138      1.0000000000
| 61>     p 4
| 62>      1      15.5000000000      0.3283807140
| 63>      2      14.0000000000     -0.5168081730
| 64>      3       6.4227368205      0.6886210803
| 65>      4       1.6595601681     -1.2538261785
| 66>     p 1
| 67>      1       0.7940291399      1.0000000000
| 68>     p 1
| 69>      1       0.3512515540      1.0000000000
| 70>     p 1
| 71>      1       0.0450000000      1.0000000000
| 72>     d 4
| 73>      1       9.5524098656      0.0556208267
| 74>      2       7.2698886937     -0.1298067767
| 75>      3       1.7746496789      0.4398380516
| 76>      4       0.7996054106      0.6483375306
| 77>     d 1
| 78>      1       0.3325227937      1.0000000000
| 79>     d 1
| 80>      1       0.1244513311      1.0000000000
| 81>     p 1
| 82>      1       0.1180173749      1.0000000000
| 83>   end
| 84>   NewAuxGTO 79
| 85>     S 1
| 86>      1 1310.72 1.0
| 87>     S 1
| 88>      1  655.36 1.0
| 89>     S 1
| 90>      1  327.68 1.0
| 91>     S 1
| 92>      1  163.84 1.0
| 93>     S 1
| 94>      1   81.82 1.0
| 95>     S 1
| 96>      1   40.96 1.0
| 97>     S 1
| 98>      1   20.48 1.0
| 99>     S 1
|100>      1   10.24 1.0
|101>     S 1
|102>      1    5.12 1.0
|103>     S 1
|104>      1    2.56 1.0
|105>     S 1
|106>      1    1.28 1.0
|107>     S 1
|108>      1    0.64 1.0
|109>     S 1
|110>      1    0.32 1.0
|111>     S 1
|112>      1    0.16 1.0
|113>     S 1
|114>      1    0.08 1.0
|115>     S 1
|116>      1    0.04 1.0
|117>     S 1
|118>      1    0.02 1.0
|119>     S 1
|120>      1    0.01 1.0
|121>   end
|122> end
|123>
|124> * xyz 0 2
|125> 79  0.0 0.0 0.0
|126> *
|127>
|128>
|129>                          ****END OF INPUT****

CARTESIAN COORDINATES (ANGSTROEM)
---------------------------------
  Au     0.000000    0.000000    0.000000

 Total Charge           Charge          ....    0
 Multiplicity           Mult            ....    2
 Number of Electrons    NEL             ....   19
 Basis Dimension        Dim             ....   36

ORBITAL ENERGIES
----------------

  NO   OCC          E(Eh)            E(eV)
   0   2.0000      -4.768560      -129.7591
   1   2.0000      -2.812697       -76.5374
   2   2.0000      -2.812697       -76.5374
   3   2.0000      -2.808216       -76.4154
   4   2.0000      -0.539519       -14.6811
   5   2.0000      -0.539519       -14.6811
   6   2.0000      -0.533590       -14.5197
   7   2.0000      -0.533590       -14.5197
   8   2.0000      -0.531646       -14.4668
   9   1.0000      -0.123189        -3.3521
  10   0.0000      -0.276080        -7.5125
  11   0.0000      -0.118218        -3.2169
  12   0.0000      -0.118218        -3.2169
  13   0.0000       0.041061         1.1173
  14   0.0000       0.090888         2.4732

CleanUpVectors: The p-vectors have cracked symmetry
CleanUpVectors: The p-vectors have cracked symmetry
CleanUpVectors: The p-vectors have cracked symmetry
CleanUpVectors: The d-vectors have cracked symmetry at i=4
CleanUpVectors: The d-vectors have cracked symmetry at i=5
CleanUpVectors: The d-vectors have cracked symmetry at i=6
CleanUpVectors: The d-vectors have cracked symmetry at i=7
CleanUpVectors: The d-vectors have cracked symmetry at i=8
CleanUpVectors: The p-vectors have cracked symmetry
CleanUpVectors: The p-vectors have cracked symmetry
CleanUpVectors: The p-vectors have cracked symmetry
CleanUpVectors: The p-vectors have cracked symmetry
CleanUpVectors: The p-vectors have cracked symmetry
CleanUpVectors: The p-vectors have cracked symmetry
CleanUpVectors: The d-vectors have cracked symmetry at i=17
CleanUpVectors: The d-vectors have cracked symmetry at i=18
CleanUpVectors: The d-vectors have cracked symmetry at i=19
CleanUpVectors: The d-vectors have cracked symmetry at i=20
CleanUpVectors: The d-vectors have cracked symmetry at i=21
CleanUpVectors: The p-vectors have cracked symmetry
CleanUpVectors: The p-vectors have cracked symmetry
CleanUpVectors: The p-vectors have cracked symmetry
CleanUpVectors: The d-vectors have cracked symmetry at i=25
CleanUpVectors: The d-vectors have cracked symmetry at i=26
CleanUpVectors: The d-vectors have cracked symmetry at i=27
CleanUpVectors: The d-vectors have cracked symmetry at i=28
CleanUpVectors: The d-vectors have cracked symmetry at i=29
CleanUpVectors: The p-vectors have cracked symmetry
CleanUpVectors: The p-vectors have cracked symmetry
CleanUpVectors: The p-vectors have cracked symmetry
--------------------------
ATOM BASIS FOR ELEMENT Au
--------------------------
 NewGTO Au
 S 8
    1         30.000000000000        -0.205979930418
    2         27.000000000000         0.330254086508
    3         14.746824331000        -0.380236344005
    4          5.601724893800         0.849294228943
    5          1.387416244300        -0.943015883933
    6          0.629230319600        -0.424658400702
    7          0.140275176100        -0.011209253997
    8          0.049379413800         0.002040307409
 P 8
    1         15.500000000000        -0.149979527935
    2         14.000000000000         0.236038970971
    3          6.422736820500        -0.314510140657
    4          1.659560168100         0.572653174642
    5          0.794029139900         0.484303099260
    6          0.351251554000         0.118358575296
    7          0.045000000000         0.000866219656
    8          0.118017374900         0.000577179201
 D 22
    1          9.552409865600        -0.009230914136
    2          7.269888693700         0.021542923418
    3          1.774649678900        -0.072996169405
    4          0.799605410600        -0.107599049339
    5          9.552409865600         0.014263852897
    6          7.269888693700        -0.033288695580
    7          1.774649678900         0.112795613423
    8          0.799605410600         0.166264899553
    9          9.552409865600        -0.015035966344
   10          7.269888693700         0.035090638552
   11          1.774649678900        -0.118901327670
   12          0.799605410600        -0.175264947828
   13          9.552409865600        -0.024417435457
   14          7.269888693700         0.056984924173
   15          1.774649678900        -0.193088054844
   16          0.799605410600        -0.284618923285
   17          9.552409865600         0.020121211064
   18          7.269888693700        -0.046958481319
   19          1.774649678900         0.159114396446
   20          0.799605410600         0.234540496211
   21          0.332522793700        -0.082647122336
   22          0.332522793700         0.127708521386
 S 8
    1         30.000000000000        -1.603691194822
    2         27.000000000000         2.571248419749
    3         14.746824331000        -2.960393644151
    4          5.601724893800         3.536829306533
    5          1.387416244300        -2.292847503184
    6          0.629230319600         1.412554608052
    7          0.140275176100        -0.415202425724
    8          0.049379413800         0.159519063353
 S 8
    1         30.000000000000        -1.566243150264
    2         27.000000000000         2.511206794713
    3         14.746824331000        -2.891265027960
    4          5.601724893800         1.466563959117
    5          1.387416244300        -0.723042627941
    6          0.629230319600         0.430861055986
    7          0.140275176100        -0.125970633027
    8          0.049379413800         0.048535731383
 D 22
    1          9.552409865600         0.008290530931
    2          7.269888693700        -0.019348275838
    3          1.774649678900         0.065559812537
    4          0.799605410600         0.096637584702
    5          9.552409865600        -0.002828538621
    6          7.269888693700         0.006601187055
    7          1.774649678900        -0.022367501345
    8          0.799605410600        -0.032970522980
    9          9.552409865600        -0.030194035602
   10          7.269888693700         0.070466238450
   11          1.774649678900        -0.238768220054
   12          0.799605410600        -0.351953173702
   13          9.552409865600        -0.004786540265
   14          7.269888693700         0.011170732263
   15          1.774649678900        -0.037850975416
   16          0.799605410600        -0.055793735541
   17          9.552409865600        -0.022563080406
   18          7.269888693700         0.052657267317
   19          1.774649678900        -0.178424196703
   20          0.799605410600        -0.263003854871
   21          0.332522793700         0.073499168366
   22          0.332522793700        -0.025076227092
 P 8
    1         15.500000000000        -0.020231776194
    2         14.000000000000         0.031840929889
    3          6.422736820500        -0.042426448890
    4          1.659560168100         0.077249148771
    5          0.794029139900         0.135797828284
    6          0.351251554000        -0.108230488998
    7          0.045000000000        -1.048920483950
    8          0.118017374900         0.094137437117
 P 16
    1         15.500000000000        -0.029024259504
    2         14.000000000000         0.045678609880
    3          6.422736820500        -0.060864466402
    4          1.659560168100         0.110820687166
    5         15.500000000000        -0.021688942464
    6         14.000000000000         0.034134229726
    7          6.422736820500        -0.045482156392
    8          1.659560168100         0.082812914054
    9          0.794029139900         0.102034212699
   10          0.794029139900         0.076247050104
   11          0.351251554000         0.236739817514
   12          0.351251554000         0.176908433456
   13          0.045000000000         1.120753159224
   14          0.045000000000         0.837504597961
   15          0.118017374900        -1.467882349845
   16          0.118017374900        -1.096903637653
 D 22
    1          9.552409865600         0.001888891974
    2          7.269888693700        -0.004408258439
    3          1.774649678900         0.014936969026
    4          0.799605410600         0.022017643943
    5          9.552409865600        -0.002918765884
    6          7.269888693700         0.006811757642
    7          1.774649678900        -0.023080999971
    8          0.799605410600        -0.034022246304
    9          9.552409865600         0.006376021095
   10          7.269888693700        -0.014880230943
   11          1.774649678900         0.050420262730
   12          0.799605410600         0.074321329206
   13          9.552409865600         0.004996460500
   14          7.269888693700        -0.011660639925
   15          1.774649678900         0.039510981439
   16          0.799605410600         0.058240645721
   17          9.552409865600        -0.008532425736
   18          7.269888693700         0.019912805112
   19          1.774649678900        -0.067472666875
   20          0.799605410600        -0.099457202636
   21          0.332522793700         0.068849734954
   22          0.332522793700        -0.106388433139
 P 8
    1         15.500000000000        -0.092109331593
    2         14.000000000000         0.144962396838
    3          6.422736820500        -0.193155154134
    4          1.659560168100         0.351692673509
    5          0.794029139900         1.259823273752
    6          0.351251554000        -2.694754298562
    7          0.045000000000        -0.686624358357
    8          0.118017374900         1.854425179272
 D 22
    1          9.552409865600        -0.016793257762
    2          7.269888693700         0.039191770237
    3          1.774649678900        -0.132797626579
    4          0.799605410600        -0.195748605590
    5          9.552409865600         0.025949386469
    6          7.269888693700        -0.060560160911
    7          1.774649678900         0.205202408201
    8          0.799605410600         0.302475927497
    9          9.552409865600        -0.018431235045
   10          7.269888693700         0.043014448971
   11          1.774649678900        -0.145750413863
   12          0.799605410600        -0.214841492372
   13          9.552409865600        -0.044421200486
   14          7.269888693700         0.103669312277
   15          1.774649678900        -0.351273712221
   16          0.799605410600        -0.517790423810
   17          9.552409865600         0.024664777908
   18          7.269888693700        -0.057562167056
   19          1.774649678900         0.195043988053
   20          0.799605410600         0.287502041065
   21          0.332522793700         0.448054513649
   22          0.332522793700        -0.692345696036
 P 16
    1         15.500000000000         0.541413613862
    2         14.000000000000        -0.852081040964
    3          6.422736820500         1.135355432801
    4          1.659560168100        -2.067230301646
    5         15.500000000000        -0.724522611388
    6         14.000000000000         1.140259434020
    7          6.422736820500        -1.519338749462
    8          1.659560168100         2.766378713318
    9          0.794029139900         2.602107981943
   10          0.794029139900        -3.482154903242
   11          0.351251554000        -1.543421843051
   12          0.351251554000         2.065415415442
   13          0.045000000000        -0.214177274572
   14          0.045000000000         0.286613181309
   15          0.118017374900         0.616921059851
   16          0.118017374900        -0.825567081912
 end
  // -----------------------------------------------
  // The basis set
  // -----------------------------------------------
  BAS[ATNO] = new BFNGauss[NSH];
  // Basis function   1 L = s
  InitBFNGauss(BAS[ATNO][  0]);
  BAS[ATNO][  0].l  = 0;
  BAS[ATNO][  0].ng = 8;
  BAS[ATNO][  0].a[  0] =        30.000000000000;     BAS[ATNO][  0].d[  0] =         0.205979930418;
  BAS[ATNO][  0].a[  1] =        27.000000000000;     BAS[ATNO][  0].d[  1] =        -0.330254086508;
  BAS[ATNO][  0].a[  2] =        14.746824331000;     BAS[ATNO][  0].d[  2] =         0.380236344005;
  BAS[ATNO][  0].a[  3] =         5.601724893800;     BAS[ATNO][  0].d[  3] =        -0.849294228943;
  BAS[ATNO][  0].a[  4] =         1.387416244300;     BAS[ATNO][  0].d[  4] =         0.943015883933;
  BAS[ATNO][  0].a[  5] =         0.629230319600;     BAS[ATNO][  0].d[  5] =         0.424658400702;
  BAS[ATNO][  0].a[  6] =         0.140275176100;     BAS[ATNO][  0].d[  6] =         0.011209253997;
  BAS[ATNO][  0].a[  7] =         0.049379413800;     BAS[ATNO][  0].d[  7] =        -0.002040307409;

FINAL SINGLE POINT ENERGY      -134.629381634225

DIPOLE MOMENT
-------------
                                X             Y             Z
Electronic contribution:      0.00000       0.00000       0.00000
Nuclear contribution   :      0.00000       0.00000       0.00000
                        -----------------------------------------
Total Dipole Moment    :      0.00000       0.00000       0.00000
                        -----------------------------------------
Magnitude (a.u.)       :      0.00000
Magnitude (Debye)      :      0.00000

Rotational constants in cm-1:     0.000000     0.000000     0.000000
Rotational constants in MHz :     0.000000     0.000000     0.000000

                             ****ORCA TERMINATED NORMALLY****
TOTAL RUN TIME: 0 days 0 hours 0 minutes 0 seconds 948 msec
