                         Program Version 4.2.0 -  RELEASE  -
|  1> #
|  2> # TMB31_C1 ri-DSD-BLYP/2013-D3BJ/Def2-TZVPPD
|  3> #
|  4> ! rijk ri-dsd-blyp/2013 d3bj def2-tzvppd def2/jk def2-tzvppd/c grid4 nofinalgrid
|  5>
|  6> *xyz 1 1
|  7> Ir      -0.040708    0.096324    0.064455
|  8> C       -0.971708    0.418734    1.931461
|  9> C        1.819460    0.364204   -1.190947
| 10> C        1.490903   -0.994938   -1.162590
| 11> C        1.450197   -1.406167    0.225985
| 12> C        1.875844   -0.290195    1.023097
| 13> C        2.052625    0.814608    0.164170
| 14> H       -0.394638    1.150210    2.498372
| 15> H       -1.993156    0.794195    1.837094
| 16> H       -1.008781   -0.505981    2.508304
| 17> H        1.977900   -0.288415    2.097324
| 18> H        2.352296    1.808383    0.458691
| 19> H        1.885000    0.981073   -2.074563
| 20> H        1.275763   -1.618283   -2.016436
| 21> H        1.275639   -2.406893    0.589421
| 22> C       -1.335861    2.101294   -0.927849
| 23> H       -0.822201    1.778454    0.045587
| 24> H       -0.969200    3.125001   -0.997930
| 25> H       -1.110952    1.579089   -1.850904
| 26> H       -2.401764    2.084149   -0.716661
| 27> P       -1.870306   -1.156932   -0.405763
| 28> H       -1.625569   -2.441008   -0.924735
| 29> H       -2.747711   -1.466666    0.650785
| 30> H       -2.792266   -0.681495   -1.360892
| 31> *
| 32>
| 33> %maxcore 5000
| 34>
| 35> %pal
| 36> nprocs = 24
| 37> end
| 38>
| 39>
| 40>                          ****END OF INPUT****

CARTESIAN COORDINATES (ANGSTROEM)
---------------------------------
  Ir    -0.040708    0.096324    0.064455
  C     -0.971708    0.418734    1.931461
  C      1.819460    0.364204   -1.190947
  C      1.490903   -0.994938   -1.162590
  C      1.450197   -1.406167    0.225985
  C      1.875844   -0.290195    1.023097
  C      2.052625    0.814608    0.164170
  H     -0.394638    1.150210    2.498372
  H     -1.993156    0.794195    1.837094
  H     -1.008781   -0.505981    2.508304
  H      1.977900   -0.288415    2.097324
  H      2.352296    1.808383    0.458691
  H      1.885000    0.981073   -2.074563
  H      1.275763   -1.618283   -2.016436
  H      1.275639   -2.406893    0.589421
  C     -1.335861    2.101294   -0.927849
  H     -0.822201    1.778454    0.045587
  H     -0.969200    3.125001   -0.997930
  H     -1.110952    1.579089   -1.850904
  H     -2.401764    2.084149   -0.716661
  P     -1.870306   -1.156932   -0.405763
  H     -1.625569   -2.441008   -0.924735
  H     -2.747711   -1.466666    0.650785
  H     -2.792266   -0.681495   -1.360892

 Total Charge           Charge          ....    1
 Multiplicity           Mult            ....    1
 Number of Electrons    NEL             ....   88
 Basis Dimension        Dim             ....  621

ORBITAL ENERGIES
----------------

  NO   OCC          E(Eh)            E(eV)
   0   2.0000     -79.102495     -2152.4883
   1   2.0000     -11.048372      -300.6415
   2   2.0000     -11.045094      -300.5523
   3   2.0000     -11.043851      -300.5185
   4   2.0000     -11.042454      -300.4805
   5   2.0000     -11.037821      -300.3544
   6   2.0000     -11.013575      -299.6946
   7   2.0000     -10.964522      -298.3598
   8   2.0000      -7.340682      -199.7501
   9   2.0000      -5.332626      -145.1081
  10   2.0000      -5.332426      -145.1027
  11   2.0000      -5.331019      -145.0644
  12   2.0000      -4.215408      -114.7071
  13   2.0000      -2.468061       -67.1593
  14   2.0000      -2.452514       -66.7363
  15   2.0000      -2.444631       -66.5218
  16   2.0000      -1.261245       -34.3202
  17   2.0000      -1.067271       -29.0419
  18   2.0000      -1.055510       -28.7219
  19   2.0000      -1.036368       -28.2010
  20   2.0000      -0.974675       -26.5222
  21   2.0000      -0.953764       -25.9532
  22   2.0000      -0.853467       -23.2240
  23   2.0000      -0.851097       -23.1595
  24   2.0000      -0.830911       -22.6102
  25   2.0000      -0.716546       -19.4982
  26   2.0000      -0.699879       -19.0447
  27   2.0000      -0.688763       -18.7422
  28   2.0000      -0.686927       -18.6922
  29   2.0000      -0.679776       -18.4977
  30   2.0000      -0.672823       -18.3084
  31   2.0000      -0.660172       -17.9642
  32   2.0000      -0.656590       -17.8667
  33   2.0000      -0.654864       -17.8197
  34   2.0000      -0.648945       -17.6587
  35   2.0000      -0.623615       -16.9694
  36   2.0000      -0.618825       -16.8391
  37   2.0000      -0.604186       -16.4407
  38   2.0000      -0.563028       -15.3208
  39   2.0000      -0.531875       -14.4731
  40   2.0000      -0.528273       -14.3750
  41   2.0000      -0.511009       -13.9053
  42   2.0000      -0.484090       -13.1728
  43   2.0000      -0.447294       -12.1715
  44   0.0000      -0.123825        -3.3694
  45   0.0000      -0.087672        -2.3857
  46   0.0000      -0.078706        -2.1417
  47   0.0000      -0.071280        -1.9396
  48   0.0000      -0.068410        -1.8615

MULLIKEN ATOMIC CHARGES
-----------------------
   0 Ir:    0.652759
   1 C :   -0.546070
   2 C :    0.018818
   3 C :   -0.135388
   4 C :    0.517866
   5 C :   -0.376328
   6 C :    0.177014
   7 H :    0.121587
   8 H :    0.127175
   9 H :    0.086054
  10 H :   -0.002860
  11 H :   -0.007158
  12 H :    0.028840
  13 H :    0.013277
  14 H :    0.054912
  15 C :   -0.361106
  16 H :    0.033337
  17 H :    0.073571
  18 H :    0.150260
  19 H :    0.118674
  20 P :    0.149811
  21 H :    0.028334
  22 H :    0.042949
  23 H :    0.033674
Sum of atomic charges:    1.0000000

LOEWDIN ATOMIC CHARGES
----------------------
   0 Ir:    0.942104
   1 C :   -0.031830
   2 C :   -0.045726
   3 C :   -0.058405
   4 C :   -0.100592
   5 C :   -0.052410
   6 C :   -0.046998
   7 H :   -0.084234
   8 H :   -0.097313
   9 H :   -0.089875
  10 H :    0.030163
  11 H :    0.022007
  12 H :    0.023051
  13 H :    0.016807
  14 H :    0.018388
  15 C :    0.255016
  16 H :   -0.143094
  17 H :   -0.019723
  18 H :   -0.060223
  19 H :   -0.031077
  20 P :    0.935233
  21 H :   -0.131710
  22 H :   -0.119496
  23 H :   -0.130064

  Mayer bond orders larger than 0.100000
B(  0-Ir,  1-C ) :   0.6133 B(  0-Ir,  2-C ) :   0.4457 B(  0-Ir,  3-C ) :   0.4229
B(  0-Ir,  4-C ) :   0.4779 B(  0-Ir,  5-C ) :   0.5773 B(  0-Ir,  6-C ) :   0.3721
B(  0-Ir, 15-C ) :   0.1001 B(  0-Ir, 16-H ) :   0.1088 B(  0-Ir, 20-P ) :   0.8959
B(  1-C ,  5-C ) :   0.1227 B(  1-C ,  7-H ) :   1.0083 B(  1-C ,  8-H ) :   0.9864
B(  1-C ,  9-H ) :   1.0428 B(  2-C ,  3-C ) :   1.4402 B(  2-C ,  4-C ) :  -0.2970
B(  2-C ,  6-C ) :   1.0693 B(  2-C , 12-H ) :   0.9677 B(  3-C ,  4-C ) :   1.0281
B(  3-C ,  6-C ) :  -0.2700 B(  3-C , 13-H ) :   1.0079 B(  4-C ,  5-C ) :   0.9972
B(  4-C ,  6-C ) :  -0.2750 B(  4-C , 14-H ) :   0.9296 B(  5-C ,  6-C ) :   1.3525
B(  5-C , 10-H ) :   0.9543 B(  6-C , 11-H ) :   0.9743 B( 15-C , 16-H ) :   0.8888
B( 15-C , 17-H ) :   1.0421 B( 15-C , 18-H ) :   0.9484 B( 15-C , 19-H ) :   0.9961
B( 20-P , 21-H ) :   0.9703 B( 20-P , 22-H ) :   0.9665 B( 20-P , 23-H ) :   0.9672

MP2 TOTAL ENERGY:     -720.625494383 Eh
Dispersion correction           -0.034990682
FINAL SINGLE POINT ENERGY      -720.660485065335

DIPOLE MOMENT
-------------
                                X             Y             Z
Electronic contribution:     -2.91654       9.99897       7.21240
Nuclear contribution   :      2.66689     -10.24599      -8.00272
                        -----------------------------------------
Total Dipole Moment    :     -0.24966      -0.24702      -0.79032
                        -----------------------------------------
Magnitude (a.u.)       :      0.86484
Magnitude (Debye)      :      2.19825

Rotational constants in cm-1:     0.050543     0.032436     0.029954
Rotational constants in MHz :  1515.232111   972.406510   898.012536

                             ****ORCA TERMINATED NORMALLY****
TOTAL RUN TIME: 0 days 0 hours 0 minutes 56 seconds 334 msec
