                         Program Version 4.2.0 -  RELEASE  -
|  1> #
|  2> # TMB31_T1 ri-DSD-BLYP/2013-D3BJ/Def2-TZVPPD
|  3> #
|  4> ! rijk ri-dsd-blyp/2013 d3bj def2-tzvppd def2/jk def2-tzvppd/c grid4 nofinalgrid
|  5>
|  6> *xyz 1 1
|  7> Ir       0.050361    0.056236   -0.150076
|  8> C        0.978842   -1.302743   -1.517387
|  9> C       -1.864665    1.028637    0.563211
| 10> C       -1.426558    0.128925    1.555248
| 11> C       -1.389999   -1.187568    0.972706
| 12> C       -1.852948   -1.076424   -0.368776
| 13> C       -2.115280    0.291316   -0.640524
| 14> H        0.395138   -1.326753   -2.435403
| 15> H        2.003015   -1.039631   -1.784042
| 16> H        0.978935   -2.299217   -1.075482
| 17> H       -1.949414   -1.889112   -1.072248
| 18> H       -2.488115    0.695321   -1.568578
| 19> H       -1.982151    2.094988    0.682898
| 20> H       -1.179131    0.379256    2.575311
| 21> H       -1.144965   -2.105263    1.484015
| 22> C        0.981659    2.033847   -0.552795
| 23> H        0.609290    0.819803   -1.428069
| 24> H        0.362656    2.677374   -1.174650
| 25> H        1.003724    2.445002    0.454509
| 26> H        1.994491    2.026607   -0.953376
| 27> P        1.998129   -0.331589    0.938590
| 28> H        2.205383    0.285042    2.190624
| 29> H        2.302734   -1.672090    1.247762
| 30> H        3.172367    0.056392    0.263634
| 31> *
| 32>
| 33> %maxcore 5000
| 34>
| 35> %pal
| 36> nprocs = 24
| 37> end
| 38>
| 39>
| 40>                          ****END OF INPUT****

CARTESIAN COORDINATES (ANGSTROEM)
---------------------------------
  Ir     0.050361    0.056236   -0.150076
  C      0.978842   -1.302743   -1.517387
  C     -1.864665    1.028637    0.563211
  C     -1.426558    0.128925    1.555248
  C     -1.389999   -1.187568    0.972706
  C     -1.852948   -1.076424   -0.368776
  C     -2.115280    0.291316   -0.640524
  H      0.395138   -1.326753   -2.435403
  H      2.003015   -1.039631   -1.784042
  H      0.978935   -2.299217   -1.075482
  H     -1.949414   -1.889112   -1.072248
  H     -2.488115    0.695321   -1.568578
  H     -1.982151    2.094988    0.682898
  H     -1.179131    0.379256    2.575311
  H     -1.144965   -2.105263    1.484015
  C      0.981659    2.033847   -0.552795
  H      0.609290    0.819803   -1.428069
  H      0.362656    2.677374   -1.174650
  H      1.003724    2.445002    0.454509
  H      1.994491    2.026607   -0.953376
  P      1.998129   -0.331589    0.938590
  H      2.205383    0.285042    2.190624
  H      2.302734   -1.672090    1.247762
  H      3.172367    0.056392    0.263634

 Total Charge           Charge          ....    1
 Multiplicity           Mult            ....    1
 Number of Electrons    NEL             ....   88
 Basis Dimension        Dim             ....  621

ORBITAL ENERGIES
----------------

  NO   OCC          E(Eh)            E(eV)
   0   2.0000     -79.110998     -2152.7197
   1   2.0000     -11.043543      -300.5101
   2   2.0000     -11.041564      -300.4562
   3   2.0000     -11.040608      -300.4302
   4   2.0000     -11.037584      -300.3479
   5   2.0000     -11.035782      -300.2989
   6   2.0000     -11.025240      -300.0120
   7   2.0000     -10.984615      -298.9066
   8   2.0000      -7.348521      -199.9634
   9   2.0000      -5.340410      -145.3199
  10   2.0000      -5.340344      -145.3181
  11   2.0000      -5.338922      -145.2795
  12   2.0000      -4.226782      -115.0166
  13   2.0000      -2.476054       -67.3769
  14   2.0000      -2.463668       -67.0398
  15   2.0000      -2.456619       -66.8480
  16   2.0000      -1.259758       -34.2797
  17   2.0000      -1.061543       -28.8861
  18   2.0000      -1.054929       -28.7061
  19   2.0000      -1.018120       -27.7045
  20   2.0000      -0.983713       -26.7682
  21   2.0000      -0.960313       -26.1314
  22   2.0000      -0.850234       -23.1360
  23   2.0000      -0.848520       -23.0894
  24   2.0000      -0.828307       -22.5394
  25   2.0000      -0.728975       -19.8364
  26   2.0000      -0.699048       -19.0221
  27   2.0000      -0.693290       -18.8654
  28   2.0000      -0.690156       -18.7801
  29   2.0000      -0.685021       -18.6404
  30   2.0000      -0.675709       -18.3870
  31   2.0000      -0.654832       -17.8189
  32   2.0000      -0.653109       -17.7720
  33   2.0000      -0.652122       -17.7452
  34   2.0000      -0.636201       -17.3119
  35   2.0000      -0.633208       -17.2305
  36   2.0000      -0.617656       -16.8073
  37   2.0000      -0.605321       -16.4716
  38   2.0000      -0.570307       -15.5188
  39   2.0000      -0.538522       -14.6539
  40   2.0000      -0.527859       -14.3638
  41   2.0000      -0.516083       -14.0433
  42   2.0000      -0.482991       -13.1428
  43   2.0000      -0.454317       -12.3626
  44   0.0000      -0.102808        -2.7975
  45   0.0000      -0.088424        -2.4061
  46   0.0000      -0.081455        -2.2165
  47   0.0000      -0.076390        -2.0787
  48   0.0000      -0.067321        -1.8319

MULLIKEN ATOMIC CHARGES
-----------------------
   0 Ir:    0.720130
   1 C :   -0.538392
   2 C :   -0.051701
   3 C :    0.034304
   4 C :    0.323844
   5 C :   -0.223562
   6 C :    0.150785
   7 H :    0.099670
   8 H :    0.160188
   9 H :    0.097082
  10 H :    0.010084
  11 H :   -0.023967
  12 H :    0.017200
  13 H :    0.003640
  14 H :    0.033998
  15 C :   -0.419754
  16 H :    0.029172
  17 H :    0.093759
  18 H :    0.115443
  19 H :    0.150845
  20 P :    0.095211
  21 H :    0.038677
  22 H :    0.045576
  23 H :    0.037769
Sum of atomic charges:    1.0000000

LOEWDIN ATOMIC CHARGES
----------------------
   0 Ir:    1.034415
   1 C :   -0.003351
   2 C :   -0.050769
   3 C :   -0.062537
   4 C :   -0.080819
   5 C :   -0.057965
   6 C :   -0.049326
   7 H :   -0.078857
   8 H :   -0.093306
   9 H :   -0.084967
  10 H :    0.028063
  11 H :    0.021794
  12 H :    0.025002
  13 H :    0.018007
  14 H :    0.017734
  15 C :    0.093053
  16 H :   -0.092627
  17 H :   -0.051646
  18 H :   -0.069274
  19 H :   -0.062985
  20 P :    0.940664
  21 H :   -0.120921
  22 H :   -0.112190
  23 H :   -0.107192

  Mayer bond orders larger than 0.100000
B(  0-Ir,  1-C ) :   0.5988 B(  0-Ir,  2-C ) :   0.4254 B(  0-Ir,  3-C ) :   0.4154
B(  0-Ir,  4-C ) :   0.4430 B(  0-Ir,  5-C ) :   0.4634 B(  0-Ir,  6-C ) :   0.3904
B(  0-Ir, 15-C ) :   0.4024 B(  0-Ir, 16-H ) :   0.5398 B(  0-Ir, 20-P ) :   0.8140
B(  1-C ,  5-C ) :   0.1066 B(  1-C ,  7-H ) :   1.0203 B(  1-C ,  8-H ) :   0.9763
B(  1-C ,  9-H ) :   1.0379 B(  2-C ,  3-C ) :   1.3828 B(  2-C ,  4-C ) :  -0.2726
B(  2-C ,  6-C ) :   1.1484 B(  2-C , 12-H ) :   0.9658 B(  2-C , 15-C ) :   0.1139
B(  3-C ,  4-C ) :   1.1097 B(  3-C ,  5-C ) :  -0.1406 B(  3-C ,  6-C ) :  -0.2364
B(  3-C , 13-H ) :   0.9889 B(  4-C ,  5-C ) :   1.1783 B(  4-C ,  6-C ) :  -0.2712
B(  4-C , 14-H ) :   0.9447 B(  5-C ,  6-C ) :   1.3232 B(  5-C , 10-H ) :   0.9580
B(  6-C , 11-H ) :   0.9605 B( 15-C , 16-H ) :   0.3224 B( 15-C , 17-H ) :   1.0303
B( 15-C , 18-H ) :   0.9971 B( 15-C , 19-H ) :   0.9852 B( 20-P , 21-H ) :   0.9743
B( 20-P , 22-H ) :   0.9754 B( 20-P , 23-H ) :   0.9901

MP2 TOTAL ENERGY:     -720.612357051 Eh
Dispersion correction           -0.036173479
FINAL SINGLE POINT ENERGY      -720.648530529964

DIPOLE MOMENT
-------------
                                X             Y             Z
Electronic contribution:      4.82221       6.88861     -17.52447
Nuclear contribution   :     -4.43915      -6.73459      18.18954
                        -----------------------------------------
Total Dipole Moment    :      0.38307       0.15402       0.66507
                        -----------------------------------------
Magnitude (a.u.)       :      0.78280
Magnitude (Debye)      :      1.98973

Rotational constants in cm-1:     0.054508     0.031967     0.031168
Rotational constants in MHz :  1634.105298   958.356108   934.407674

                             ****ORCA TERMINATED NORMALLY****
TOTAL RUN TIME: 0 days 0 hours 0 minutes 57 seconds 744 msec
