                         Program Version 4.2.0 -  RELEASE  -
|  1> #
|  2> # TMD05_Cl ri-DSD-BLYP/2013-D3BJ/Def2-TZVPPD
|  3> #
|  4> ! rijk ri-dsd-blyp/2013 d3bj def2-tzvppd def2/jk def2-tzvppd/c grid4 nofinalgrid
|  5>
|  6> *xyz 0 2
|  7> Cl       0.000000    0.000000    0.000000
|  8> *
|  9>
| 10> %maxcore 5000
| 11>
| 12> %pal
| 13> nprocs = 24
| 14> end
| 15>
| 16>
| 17>                          ****END OF INPUT****

CARTESIAN COORDINATES (ANGSTROEM)
---------------------------------
  Cl     0.000000    0.000000    0.000000

 Total Charge           Charge          ....    0
 Multiplicity           Mult            ....    2
 Number of Electrons    NEL             ....   17
 Basis Dimension        Dim             ....   51

ORBITAL ENERGIES
----------------
                 SPIN UP ORBITALS
  NO   OCC          E(Eh)            E(eV)
   0   1.0000    -103.703859     -2821.9255
   1   1.0000     -10.216457      -278.0039
   2   1.0000      -7.806389      -212.4226
   3   1.0000      -7.782765      -211.7798
   4   1.0000      -7.782765      -211.7798
   5   1.0000      -1.035768       -28.1847
   6   1.0000      -0.521641       -14.1946
   7   1.0000      -0.453207       -12.3324
   8   1.0000      -0.453207       -12.3324
   9   0.0000       0.074839         2.0365
  10   0.0000       0.080339         2.1861
  11   0.0000       0.080339         2.1861
  12   0.0000       0.097299         2.6477
  13   0.0000       0.220158         5.9908

                 SPIN DOWN ORBITALS
  NO   OCC          E(Eh)            E(eV)
   0   1.0000    -103.693332     -2821.6390
   1   1.0000     -10.207086      -277.7489
   2   1.0000      -7.777443      -211.6350
   3   1.0000      -7.777443      -211.6350
   4   1.0000      -7.766180      -211.3285
   5   1.0000      -0.940376       -25.5889
   6   1.0000      -0.434028       -11.8105
   7   1.0000      -0.434028       -11.8105
   8   0.0000      -0.119096        -3.2408
   9   0.0000       0.080935         2.2024
  10   0.0000       0.080936         2.2024
  11   0.0000       0.086218         2.3461
  12   0.0000       0.101974         2.7749

MULLIKEN ATOMIC CHARGES AND SPIN POPULATIONS
--------------------------------------------
   0 Cl:    0.000000    1.000000
Sum of atomic charges         :    0.0000000

LOEWDIN ATOMIC CHARGES AND SPIN POPULATIONS
-------------------------------------------
   0 Cl:   -0.000000    1.000000

MP2 TOTAL ENERGY:     -459.924109849 Eh
Dispersion correction            0.000000000
FINAL SINGLE POINT ENERGY      -459.924109849347

DIPOLE MOMENT
-------------
                                X             Y             Z
Electronic contribution:     -0.00000      -0.00000      -0.00000
Nuclear contribution   :      0.00000       0.00000       0.00000
                        -----------------------------------------
Total Dipole Moment    :     -0.00000      -0.00000      -0.00000
                        -----------------------------------------
Magnitude (a.u.)       :      0.00000
Magnitude (Debye)      :      0.00000

Rotational constants in cm-1:     0.000000     0.000000     0.000000
Rotational constants in MHz :     0.000000     0.000000     0.000000

                             ****ORCA TERMINATED NORMALLY****
TOTAL RUN TIME: 0 days 0 hours 0 minutes 2 seconds 892 msec
