                         Program Version 4.2.0 -  RELEASE  -
|  1> #
|  2> # TMD09_Cr ri-DSD-BLYP/2013-D3BJ/Def2-TZVPPD
|  3> #
|  4> ! rijk ri-dsd-blyp/2013 d3bj def2-tzvppd def2/jk def2-tzvppd/c grid4 nofinalgrid
|  5>
|  6> *xyz 0 7
|  7> Cr       0.000000    0.000000    0.000000
|  8> *
|  9>
| 10> %maxcore 5000
| 11>
| 12> %pal
| 13> nprocs = 24
| 14> end
| 15>
| 16>
| 17>                          ****END OF INPUT****

CARTESIAN COORDINATES (ANGSTROEM)
---------------------------------
  Cr     0.000000    0.000000    0.000000

 Total Charge           Charge          ....    0
 Multiplicity           Mult            ....    7
 Number of Electrons    NEL             ....   24
 Basis Dimension        Dim             ....   67

ORBITAL ENERGIES
----------------
                 SPIN UP ORBITALS
  NO   OCC          E(Eh)            E(eV)
   0   1.0000    -218.679324     -5950.5669
   1   1.0000     -25.659629      -698.2340
   2   1.0000     -21.717942      -590.9752
   3   1.0000     -21.717942      -590.9752
   4   1.0000     -21.717942      -590.9752
   5   1.0000      -3.237225       -88.0894
   6   1.0000      -2.094726       -57.0004
   7   1.0000      -2.094726       -57.0004
   8   1.0000      -2.094726       -57.0004
   9   1.0000      -0.301611        -8.2073
  10   1.0000      -0.301611        -8.2073
  11   1.0000      -0.301611        -8.2073
  12   1.0000      -0.301611        -8.2073
  13   1.0000      -0.301611        -8.2073
  14   1.0000      -0.203467        -5.5366
  15   0.0000       0.011849         0.3224
  16   0.0000       0.011849         0.3224
  17   0.0000       0.011849         0.3224
  18   0.0000       0.115896         3.1537
  19   0.0000       0.115896         3.1537

                 SPIN DOWN ORBITALS
  NO   OCC          E(Eh)            E(eV)
   0   1.0000    -218.676756     -5950.4970
   1   1.0000     -25.571614      -695.8390
   2   1.0000     -21.635401      -588.7292
   3   1.0000     -21.635401      -588.7292
   4   1.0000     -21.635401      -588.7292
   5   1.0000      -2.949890       -80.2706
   6   1.0000      -1.757691       -47.8292
   7   1.0000      -1.757691       -47.8292
   8   1.0000      -1.757691       -47.8292
   9   0.0000      -0.008859        -0.2411
  10   0.0000       0.035710         0.9717
  11   0.0000       0.035710         0.9717
  12   0.0000       0.035710         0.9717
  13   0.0000       0.131647         3.5823

MULLIKEN ATOMIC CHARGES AND SPIN POPULATIONS
--------------------------------------------
   0 Cr:    0.000000    6.000000
Sum of atomic charges         :    0.0000000

LOEWDIN ATOMIC CHARGES AND SPIN POPULATIONS
-------------------------------------------
   0 Cr:    0.000000    6.000000

MP2 TOTAL ENERGY:    -1044.108339354 Eh
Dispersion correction            0.000000000
FINAL SINGLE POINT ENERGY     -1044.108339353687

DIPOLE MOMENT
-------------
                                X             Y             Z
Electronic contribution:     -0.00000       0.00000      -0.00000
Nuclear contribution   :      0.00000       0.00000       0.00000
                        -----------------------------------------
Total Dipole Moment    :     -0.00000       0.00000      -0.00000
                        -----------------------------------------
Magnitude (a.u.)       :      0.00000
Magnitude (Debye)      :      0.00000

Rotational constants in cm-1:     0.000000     0.000000     0.000000
Rotational constants in MHz :     0.000000     0.000000     0.000000

                             ****ORCA TERMINATED NORMALLY****
TOTAL RUN TIME: 0 days 0 hours 0 minutes 3 seconds 323 msec
