                         Program Version 4.2.0 -  RELEASE  -
|  1> #
|  2> # TMD08_V ri-DSD-BLYP/2013-D3BJ/Def2-TZVPPD
|  3> #
|  4> ! rijk ri-dsd-blyp/2013 d3bj def2-tzvppd def2/jk def2-tzvppd/c grid4 nofinalgrid
|  5>
|  6> *xyz 0 4
|  7> V        0.000000    0.000000    0.000000
|  8> *
|  9>
| 10> %maxcore 5000
| 11>
| 12> %pal
| 13> nprocs = 24
| 14> end
| 15>
| 16>
| 17>                          ****END OF INPUT****

CARTESIAN COORDINATES (ANGSTROEM)
---------------------------------
  V      0.000000    0.000000    0.000000

 Total Charge           Charge          ....    0
 Multiplicity           Mult            ....    4
 Number of Electrons    NEL             ....   23
 Basis Dimension        Dim             ....   67

ORBITAL ENERGIES
----------------
                 SPIN UP ORBITALS
  NO   OCC          E(Eh)            E(eV)
   0   1.0000    -199.857772     -5438.4065
   1   1.0000     -23.322182      -634.6288
   2   1.0000     -19.596834      -533.2570
   3   1.0000     -19.596803      -533.2561
   4   1.0000     -19.596793      -533.2558
   5   1.0000      -3.080651       -83.8288
   6   1.0000      -2.002762       -54.4979
   7   1.0000      -2.002685       -54.4958
   8   1.0000      -2.002520       -54.4913
   9   1.0000      -0.432329       -11.7643
  10   1.0000      -0.432094       -11.7579
  11   1.0000      -0.431963       -11.7543
  12   1.0000      -0.228789        -6.2257
  13   0.0000       0.002574         0.0700
  14   0.0000       0.002599         0.0707
  15   0.0000       0.002612         0.0711
  16   0.0000       0.038740         1.0542
  17   0.0000       0.038743         1.0542

                 SPIN DOWN ORBITALS
  NO   OCC          E(Eh)            E(eV)
   0   1.0000    -199.856870     -5438.3819
   1   1.0000     -23.270107      -633.2118
   2   1.0000     -19.547011      -531.9012
   3   1.0000     -19.546866      -531.8973
   4   1.0000     -19.546792      -531.8952
   5   1.0000      -2.906104       -79.0791
   6   1.0000      -1.796048       -48.8729
   7   1.0000      -1.795672       -48.8627
   8   1.0000      -1.795464       -48.8571
   9   1.0000      -0.205647        -5.5959
  10   0.0000       0.006949         0.1891
  11   0.0000       0.006966         0.1896
  12   0.0000       0.006978         0.1899
  13   0.0000       0.072660         1.9772
  14   0.0000       0.072668         1.9774

MULLIKEN ATOMIC CHARGES AND SPIN POPULATIONS
--------------------------------------------
   0 V :   -0.000000    3.000000
Sum of atomic charges         :   -0.0000000

LOEWDIN ATOMIC CHARGES AND SPIN POPULATIONS
-------------------------------------------
   0 V :   -0.000000    3.000000

MP2 TOTAL ENERGY:     -943.588543873 Eh
Dispersion correction            0.000000000
FINAL SINGLE POINT ENERGY      -943.588543872697

DIPOLE MOMENT
-------------
                                X             Y             Z
Electronic contribution:      0.00000       0.00000      -0.00000
Nuclear contribution   :      0.00000       0.00000       0.00000
                        -----------------------------------------
Total Dipole Moment    :      0.00000       0.00000      -0.00000
                        -----------------------------------------
Magnitude (a.u.)       :      0.00000
Magnitude (Debye)      :      0.00000

Rotational constants in cm-1:     0.000000     0.000000     0.000000
Rotational constants in MHz :     0.000000     0.000000     0.000000

                             ****ORCA TERMINATED NORMALLY****
TOTAL RUN TIME: 0 days 0 hours 0 minutes 5 seconds 179 msec
