                         Program Version 4.2.0 -  RELEASE  -
|  1> #
|  2> # TMD06_Br ri-DSD-BLYP/2013-D3BJ/Def2-TZVPPD
|  3> #
|  4> ! rijk ri-dsd-blyp/2013 d3bj def2-tzvppd def2/jk def2-tzvppd/c grid4 nofinalgrid
|  5>
|  6> *xyz 0 2
|  7> Br       0.000000    0.000000    0.000000
|  8> *
|  9>
| 10> %maxcore 5000
| 11>
| 12> %pal
| 13> nprocs = 24
| 14> end
| 15>
| 16>
| 17>                          ****END OF INPUT****

CARTESIAN COORDINATES (ANGSTROEM)
---------------------------------
  Br     0.000000    0.000000    0.000000

 Total Charge           Charge          ....    0
 Multiplicity           Mult            ....    2
 Number of Electrons    NEL             ....   35
 Basis Dimension        Dim             ....   57

ORBITAL ENERGIES
----------------
                 SPIN UP ORBITALS
  NO   OCC          E(Eh)            E(eV)
   0   1.0000    -487.492980    -13265.3584
   1   1.0000     -64.244086     -1748.1704
   2   1.0000     -57.769724     -1571.9941
   3   1.0000     -57.762085     -1571.7862
   4   1.0000     -57.762085     -1571.7862
   5   1.0000      -9.466338      -257.5922
   6   1.0000      -7.166980      -195.0234
   7   1.0000      -7.144297      -194.4062
   8   1.0000      -7.144297      -194.4062
   9   1.0000      -3.037069       -82.6428
  10   1.0000      -3.031667       -82.4959
  11   1.0000      -3.031667       -82.4959
  12   1.0000      -3.015572       -82.0579
  13   1.0000      -3.015572       -82.0579
  14   1.0000      -0.960736       -26.1430
  15   1.0000      -0.470908       -12.8141
  16   1.0000      -0.411060       -11.1855
  17   1.0000      -0.411060       -11.1855
  18   0.0000       0.059517         1.6196
  19   0.0000       0.064358         1.7513
  20   0.0000       0.064358         1.7513
  21   0.0000       0.081870         2.2278
  22   0.0000       0.167882         4.5683

                 SPIN DOWN ORBITALS
  NO   OCC          E(Eh)            E(eV)
   0   1.0000    -487.489303    -13265.2583
   1   1.0000     -64.242055     -1748.1152
   2   1.0000     -57.760844     -1571.7525
   3   1.0000     -57.760844     -1571.7525
   4   1.0000     -57.760006     -1571.7297
   5   1.0000      -9.459625      -257.4095
   6   1.0000      -7.144444      -194.4102
   7   1.0000      -7.142248      -194.3505
   8   1.0000      -7.142248      -194.3505
   9   1.0000      -3.027390       -82.3795
  10   1.0000      -3.024266       -82.2945
  11   1.0000      -3.024266       -82.2945
  12   1.0000      -3.014924       -82.0403
  13   1.0000      -3.014924       -82.0403
  14   1.0000      -0.878263       -23.8987
  15   1.0000      -0.393498       -10.7076
  16   1.0000      -0.393498       -10.7076
  17   0.0000      -0.120877        -3.2892
  18   0.0000       0.064800         1.7633
  19   0.0000       0.064801         1.7633
  20   0.0000       0.067408         1.8343
  21   0.0000       0.086298         2.3483

MULLIKEN ATOMIC CHARGES AND SPIN POPULATIONS
--------------------------------------------
   0 Br:    0.000000    1.000000
Sum of atomic charges         :    0.0000000

LOEWDIN ATOMIC CHARGES AND SPIN POPULATIONS
-------------------------------------------
   0 Br:   -0.000000    1.000000

MP2 TOTAL ENERGY:    -2573.443637733 Eh
Dispersion correction            0.000000000
FINAL SINGLE POINT ENERGY     -2573.443637732648

DIPOLE MOMENT
-------------
                                X             Y             Z
Electronic contribution:     -0.00000      -0.00000      -0.00000
Nuclear contribution   :      0.00000       0.00000       0.00000
                        -----------------------------------------
Total Dipole Moment    :     -0.00000      -0.00000      -0.00000
                        -----------------------------------------
Magnitude (a.u.)       :      0.00000
Magnitude (Debye)      :      0.00000

Rotational constants in cm-1:     0.000000     0.000000     0.000000
Rotational constants in MHz :     0.000000     0.000000     0.000000

                             ****ORCA TERMINATED NORMALLY****
TOTAL RUN TIME: 0 days 0 hours 0 minutes 3 seconds 281 msec
