                         Program Version 4.2.0 -  RELEASE  -
|  1> #
|  2> # TMD02_O ri-DSD-BLYP/2013-D3BJ/Def2-TZVPPD
|  3> #
|  4> ! rijk ri-dsd-blyp/2013 d3bj def2-tzvppd def2/jk def2-tzvppd/c grid4 nofinalgrid
|  5>
|  6> *xyz 0 3
|  7> O        0.000000    0.000000    0.000000
|  8> *
|  9>
| 10> %maxcore 5000
| 11>
| 12> %pal
| 13> nprocs = 24
| 14> end
| 15>
| 16>
| 17>                          ****END OF INPUT****

CARTESIAN COORDINATES (ANGSTROEM)
---------------------------------
  O      0.000000    0.000000    0.000000

 Total Charge           Charge          ....    0
 Multiplicity           Mult            ....    3
 Number of Electrons    NEL             ....    8
 Basis Dimension        Dim             ....   40

ORBITAL ENERGIES
----------------
                 SPIN UP ORBITALS
  NO   OCC          E(Eh)            E(eV)
   0   1.0000     -20.197806      -549.6102
   1   1.0000      -1.275297       -34.7026
   2   1.0000      -0.621972       -16.9247
   3   1.0000      -0.621972       -16.9247
   4   1.0000      -0.532637       -14.4938
   5   0.0000       0.100599         2.7374
   6   0.0000       0.110173         2.9980
   7   0.0000       0.110173         2.9980
   8   0.0000       0.115084         3.1316
   9   0.0000       0.416550        11.3349

                 SPIN DOWN ORBITALS
  NO   OCC          E(Eh)            E(eV)
   0   1.0000     -20.129891      -547.7622
   1   1.0000      -1.006195       -27.3799
   2   1.0000      -0.460043       -12.5184
   3   0.0000      -0.018073        -0.4918
   4   0.0000      -0.018071        -0.4917
   5   0.0000       0.108488         2.9521
   6   0.0000       0.117622         3.2007
   7   0.0000       0.142726         3.8838

MULLIKEN ATOMIC CHARGES AND SPIN POPULATIONS
--------------------------------------------
   0 O :   -0.000000    2.000000
Sum of atomic charges         :   -0.0000000

LOEWDIN ATOMIC CHARGES AND SPIN POPULATIONS
-------------------------------------------
   0 O :   -0.000000    2.000000

MP2 TOTAL ENERGY:      -75.027778216 Eh
Dispersion correction            0.000000000
FINAL SINGLE POINT ENERGY       -75.027778215681

DIPOLE MOMENT
-------------
                                X             Y             Z
Electronic contribution:      0.00000       0.00000       0.00000
Nuclear contribution   :      0.00000       0.00000       0.00000
                        -----------------------------------------
Total Dipole Moment    :      0.00000       0.00000       0.00000
                        -----------------------------------------
Magnitude (a.u.)       :      0.00000
Magnitude (Debye)      :      0.00000

Rotational constants in cm-1:     0.000000     0.000000     0.000000
Rotational constants in MHz :     0.000000     0.000000     0.000000

                             ****ORCA TERMINATED NORMALLY****
TOTAL RUN TIME: 0 days 0 hours 0 minutes 2 seconds 949 msec
