                         Program Version 4.2.0 -  RELEASE  -
|  1> #
|  2> # TMD04_S ri-DSD-BLYP/2013-D3BJ/Def2-TZVPPD
|  3> #
|  4> ! rijk ri-dsd-blyp/2013 d3bj def2-tzvppd def2/jk def2-tzvppd/c grid4 nofinalgrid
|  5>
|  6> *xyz 0 3
|  7> S        0.000000    0.000000    0.000000
|  8> *
|  9>
| 10> %maxcore 5000
| 11>
| 12> %pal
| 13> nprocs = 24
| 14> end
| 15>
| 16>
| 17>                          ****END OF INPUT****

CARTESIAN COORDINATES (ANGSTROEM)
---------------------------------
  S      0.000000    0.000000    0.000000

 Total Charge           Charge          ....    0
 Multiplicity           Mult            ....    3
 Number of Electrons    NEL             ....   16
 Basis Dimension        Dim             ....   51

ORBITAL ENERGIES
----------------
                 SPIN UP ORBITALS
  NO   OCC          E(Eh)            E(eV)
   0   1.0000     -90.905061     -2473.6525
   1   1.0000      -8.646395      -235.2804
   2   1.0000      -6.439599      -175.2304
   3   1.0000      -6.439599      -175.2304
   4   1.0000      -6.419810      -174.6919
   5   1.0000      -0.896570       -24.3969
   6   1.0000      -0.432719       -11.7749
   7   1.0000      -0.432719       -11.7749
   8   1.0000      -0.372374       -10.1328
   9   0.0000       0.065163         1.7732
  10   0.0000       0.065163         1.7732
  11   0.0000       0.070256         1.9118
  12   0.0000       0.076596         2.0843
  13   0.0000       0.176674         4.8076

                 SPIN DOWN ORBITALS
  NO   OCC          E(Eh)            E(eV)
   0   1.0000     -90.887970     -2473.1874
   1   1.0000      -8.630655      -234.8521
   2   1.0000      -6.410895      -174.4493
   3   1.0000      -6.401424      -174.1916
   4   1.0000      -6.401424      -174.1916
   5   1.0000      -0.729380       -19.8474
   6   1.0000      -0.340215        -9.2577
   7   0.0000      -0.065679        -1.7872
   8   0.0000      -0.065677        -1.7872
   9   0.0000       0.071261         1.9391
  10   0.0000       0.078825         2.1449
  11   0.0000       0.078844         2.1454

MULLIKEN ATOMIC CHARGES AND SPIN POPULATIONS
--------------------------------------------
   0 S :    0.000000    2.000000
Sum of atomic charges         :    0.0000000

LOEWDIN ATOMIC CHARGES AND SPIN POPULATIONS
-------------------------------------------
   0 S :    0.000000    2.000000

MP2 TOTAL ENERGY:     -397.895898422 Eh
Dispersion correction            0.000000000
FINAL SINGLE POINT ENERGY      -397.895898422053

DIPOLE MOMENT
-------------
                                X             Y             Z
Electronic contribution:      0.00000      -0.00000      -0.00000
Nuclear contribution   :      0.00000       0.00000       0.00000
                        -----------------------------------------
Total Dipole Moment    :      0.00000      -0.00000      -0.00000
                        -----------------------------------------
Magnitude (a.u.)       :      0.00000
Magnitude (Debye)      :      0.00000

Rotational constants in cm-1:     0.000000     0.000000     0.000000
Rotational constants in MHz :     0.000000     0.000000     0.000000

                             ****ORCA TERMINATED NORMALLY****
TOTAL RUN TIME: 0 days 0 hours 0 minutes 2 seconds 918 msec
