                         Program Version 4.2.0 -  RELEASE  -
|  1> #
|  2> # TMD07_Ti ri-DSD-BLYP/2013-D3BJ/Def2-TZVPPD
|  3> #
|  4> ! rijk ri-dsd-blyp/2013 d3bj def2-tzvppd def2/jk def2-tzvppd/c grid4 nofinalgrid
|  5>
|  6> *xyz 0 3
|  7> Ti       0.000000    0.000000    0.000000
|  8> *
|  9>
| 10> %maxcore 5000
| 11>
| 12> %pal
| 13> nprocs = 24
| 14> end
| 15>
| 16>
| 17>                          ****END OF INPUT****

CARTESIAN COORDINATES (ANGSTROEM)
---------------------------------
  Ti     0.000000    0.000000    0.000000

 Total Charge           Charge          ....    0
 Multiplicity           Mult            ....    3
 Number of Electrons    NEL             ....   22
 Basis Dimension        Dim             ....   67

ORBITAL ENERGIES
----------------
                 SPIN UP ORBITALS
  NO   OCC          E(Eh)            E(eV)
   0   1.0000    -181.703057     -4944.3916
   1   1.0000     -20.887292      -568.3721
   2   1.0000     -17.379452      -472.9189
   3   1.0000     -17.379431      -472.9184
   4   1.0000     -17.379428      -472.9183
   5   1.0000      -2.750222       -74.8374
   6   1.0000      -1.750789       -47.6414
   7   1.0000      -1.750784       -47.6412
   8   1.0000      -1.750718       -47.6395
   9   1.0000      -0.373626       -10.1669
  10   1.0000      -0.373615       -10.1666
  11   1.0000      -0.215633        -5.8677
  12   0.0000       0.000835         0.0227
  13   0.0000       0.000865         0.0235
  14   0.0000       0.000893         0.0243
  15   0.0000       0.047098         1.2816
  16   0.0000       0.047141         1.2828

                 SPIN DOWN ORBITALS
  NO   OCC          E(Eh)            E(eV)
   0   1.0000    -181.702704     -4944.3819
   1   1.0000     -20.858601      -567.5914
   2   1.0000     -17.351827      -472.1672
   3   1.0000     -17.351753      -472.1652
   4   1.0000     -17.351731      -472.1646
   5   1.0000      -2.644550       -71.9619
   6   1.0000      -1.624751       -44.2117
   7   1.0000      -1.624593       -44.2074
   8   1.0000      -1.624532       -44.2058
   9   1.0000      -0.199331        -5.4241
  10   0.0000       0.004008         0.1091
  11   0.0000       0.004053         0.1103
  12   0.0000       0.004097         0.1115
  13   0.0000       0.065250         1.7755
  14   0.0000       0.065299         1.7769

MULLIKEN ATOMIC CHARGES AND SPIN POPULATIONS
--------------------------------------------
   0 Ti:    0.000000    2.000000
Sum of atomic charges         :    0.0000000

LOEWDIN ATOMIC CHARGES AND SPIN POPULATIONS
-------------------------------------------
   0 Ti:    0.000000    2.000000

MP2 TOTAL ENERGY:     -849.053744697 Eh
Dispersion correction            0.000000000
FINAL SINGLE POINT ENERGY      -849.053744696749

DIPOLE MOMENT
-------------
                                X             Y             Z
Electronic contribution:      0.00000       0.00000       0.00000
Nuclear contribution   :      0.00000       0.00000       0.00000
                        -----------------------------------------
Total Dipole Moment    :      0.00000       0.00000       0.00000
                        -----------------------------------------
Magnitude (a.u.)       :      0.00000
Magnitude (Debye)      :      0.00000

Rotational constants in cm-1:     0.000000     0.000000     0.000000
Rotational constants in MHz :     0.000000     0.000000     0.000000

                             ****ORCA TERMINATED NORMALLY****
TOTAL RUN TIME: 0 days 0 hours 0 minutes 5 seconds 5 msec
