                         Program Version 4.2.0 -  RELEASE  -
|  1> #
|  2> # TMD14_Zn ri-DSD-BLYP/2013-D3BJ/Def2-TZVPPD
|  3> #
|  4> ! rijk ri-dsd-blyp/2013 d3bj def2-tzvppd def2/jk def2-tzvppd/c grid4 nofinalgrid
|  5>
|  6> *xyz 0 1
|  7> Zn       0.000000    0.000000    0.000000
|  8> *
|  9>
| 10> %maxcore 5000
| 11>
| 12> %pal
| 13> nprocs = 24
| 14> end
| 15>
| 16>
| 17>                          ****END OF INPUT****

CARTESIAN COORDINATES (ANGSTROEM)
---------------------------------
  Zn     0.000000    0.000000    0.000000

 Total Charge           Charge          ....    0
 Multiplicity           Mult            ....    1
 Number of Electrons    NEL             ....   30
 Basis Dimension        Dim             ....   67

ORBITAL ENERGIES
----------------

  NO   OCC          E(Eh)            E(eV)
   0   2.0000    -351.132342     -9554.7968
   1   2.0000     -43.581226     -1185.9055
   2   2.0000     -38.293888     -1042.0297
   3   2.0000     -38.293888     -1042.0297
   4   2.0000     -38.293888     -1042.0297
   5   2.0000      -5.338330      -145.2633
   6   2.0000      -3.607490       -98.1648
   7   2.0000      -3.607490       -98.1648
   8   2.0000      -3.607490       -98.1648
   9   2.0000      -0.670328       -18.2406
  10   2.0000      -0.670328       -18.2406
  11   2.0000      -0.670328       -18.2406
  12   2.0000      -0.670328       -18.2406
  13   2.0000      -0.670328       -18.2406
  14   2.0000      -0.276573        -7.5259
  15   0.0000       0.013385         0.3642
  16   0.0000       0.013385         0.3642
  17   0.0000       0.013385         0.3642
  18   0.0000       0.083113         2.2616
  19   0.0000       0.083113         2.2616

MULLIKEN ATOMIC CHARGES
-----------------------
   0 Zn:   -0.000000
Sum of atomic charges:   -0.0000000

LOEWDIN ATOMIC CHARGES
----------------------
   0 Zn:   -0.000000

MP2 TOTAL ENERGY:    -1779.043408577 Eh
Dispersion correction            0.000000000
FINAL SINGLE POINT ENERGY     -1779.043408577467

DIPOLE MOMENT
-------------
                                X             Y             Z
Electronic contribution:      0.00000       0.00000       0.00000
Nuclear contribution   :      0.00000       0.00000       0.00000
                        -----------------------------------------
Total Dipole Moment    :      0.00000       0.00000       0.00000
                        -----------------------------------------
Magnitude (a.u.)       :      0.00000
Magnitude (Debye)      :      0.00000

Rotational constants in cm-1:     0.000000     0.000000     0.000000
Rotational constants in MHz :     0.000000     0.000000     0.000000

                             ****ORCA TERMINATED NORMALLY****
TOTAL RUN TIME: 0 days 0 hours 0 minutes 3 seconds 139 msec
