                         Program Version 4.2.0 -  RELEASE  -
|  1> #
|  2> # TMD12_Co ri-DSD-BLYP/2013-D3BJ/Def2-TZVPPD
|  3> #
|  4> ! rijk ri-dsd-blyp/2013 d3bj def2-tzvppd def2/jk def2-tzvppd/c grid4 nofinalgrid
|  5>
|  6> *xyz 0 4
|  7> Co       0.000000    0.000000    0.000000
|  8> *
|  9>
| 10> %maxcore 5000
| 11>
| 12> %pal
| 13> nprocs = 24
| 14> end
| 15>
| 16>
| 17>                          ****END OF INPUT****

CARTESIAN COORDINATES (ANGSTROEM)
---------------------------------
  Co     0.000000    0.000000    0.000000

 Total Charge           Charge          ....    0
 Multiplicity           Mult            ....    4
 Number of Electrons    NEL             ....   27
 Basis Dimension        Dim             ....   67

ORBITAL ENERGIES
----------------
                 SPIN UP ORBITALS
  NO   OCC          E(Eh)            E(eV)
   0   1.0000    -280.924585     -7644.3466
   1   1.0000     -33.982669      -924.7154
   2   1.0000     -29.377071      -799.3907
   3   1.0000     -29.376916      -799.3865
   4   1.0000     -29.376790      -799.3831
   5   1.0000      -4.141138      -112.6861
   6   1.0000      -2.717034       -73.9343
   7   1.0000      -2.716700       -73.9252
   8   1.0000      -2.716419       -73.9175
   9   1.0000      -0.413262       -11.2454
  10   1.0000      -0.413258       -11.2453
  11   1.0000      -0.367182        -9.9915
  12   1.0000      -0.367061        -9.9882
  13   1.0000      -0.366953        -9.9853
  14   1.0000      -0.217191        -5.9101
  15   0.0000       0.021839         0.5943
  16   0.0000       0.021861         0.5949
  17   0.0000       0.021892         0.5957
  18   0.0000       0.176079         4.7914
  19   0.0000       0.176112         4.7923

                 SPIN DOWN ORBITALS
  NO   OCC          E(Eh)            E(eV)
   0   1.0000    -280.921758     -7644.2697
   1   1.0000     -33.925993      -923.1732
   2   1.0000     -29.325139      -797.9776
   3   1.0000     -29.325112      -797.9769
   4   1.0000     -29.325098      -797.9765
   5   1.0000      -3.988943      -108.5447
   6   1.0000      -2.543009       -69.1988
   7   1.0000      -2.542901       -69.1959
   8   1.0000      -2.542736       -69.1914
   9   1.0000      -0.308397        -8.3919
  10   1.0000      -0.308188        -8.3862
  11   1.0000      -0.307981        -8.3806
  12   0.0000      -0.022998        -0.6258
  13   0.0000       0.042278         1.1504
  14   0.0000       0.042294         1.1509
  15   0.0000       0.042302         1.1511
  16   0.0000       0.198766         5.4087

MULLIKEN ATOMIC CHARGES AND SPIN POPULATIONS
--------------------------------------------
   0 Co:   -0.000000    3.000000
Sum of atomic charges         :   -0.0000000

LOEWDIN ATOMIC CHARGES AND SPIN POPULATIONS
-------------------------------------------
   0 Co:   -0.000000    3.000000

MP2 TOTAL ENERGY:    -1382.386964055 Eh
Dispersion correction            0.000000000
FINAL SINGLE POINT ENERGY     -1382.386964055486

DIPOLE MOMENT
-------------
                                X             Y             Z
Electronic contribution:      0.00000       0.00000       0.00000
Nuclear contribution   :      0.00000       0.00000       0.00000
                        -----------------------------------------
Total Dipole Moment    :      0.00000       0.00000       0.00000
                        -----------------------------------------
Magnitude (a.u.)       :      0.00000
Magnitude (Debye)      :      0.00000

Rotational constants in cm-1:     0.000000     0.000000     0.000000
Rotational constants in MHz :     0.000000     0.000000     0.000000

                             ****ORCA TERMINATED NORMALLY****
TOTAL RUN TIME: 0 days 0 hours 0 minutes 4 seconds 290 msec
