                         Program Version 4.2.0 -  RELEASE  -
|  1> #
|  2> # TMD15_TiBr ri-DSD-BLYP/2013-D3BJ/Def2-TZVPPD
|  3> #
|  4> ! rijk ri-dsd-blyp/2013 d3bj def2-tzvppd def2/jk def2-tzvppd/c grid4 nofinalgrid
|  5>
|  6> *xyz 0 4
|  7> Ti       0.000000    0.000000   -1.485965
|  8> Br       0.000000    0.000000    0.934035
|  9> *
| 10>
| 11> %maxcore 5000
| 12>
| 13> %pal
| 14> nprocs = 24
| 15> end
| 16>
| 17>
| 18>                          ****END OF INPUT****

CARTESIAN COORDINATES (ANGSTROEM)
---------------------------------
  Ti     0.000000    0.000000   -1.485965
  Br     0.000000    0.000000    0.934035

 Total Charge           Charge          ....    0
 Multiplicity           Mult            ....    4
 Number of Electrons    NEL             ....   57
 Basis Dimension        Dim             ....  124

ORBITAL ENERGIES
----------------
                 SPIN UP ORBITALS
  NO   OCC          E(Eh)            E(eV)
   0   1.0000    -487.406012    -13262.9919
   1   1.0000    -181.692459     -4944.1032
   2   1.0000     -64.159196     -1745.8605
   3   1.0000     -57.678843     -1569.5211
   4   1.0000     -57.678744     -1569.5184
   5   1.0000     -57.678744     -1569.5184
   6   1.0000     -20.871499      -567.9424
   7   1.0000     -17.368988      -472.6342
   8   1.0000     -17.362209      -472.4497
   9   1.0000     -17.362209      -472.4497
  10   1.0000      -9.380012      -255.2431
  11   1.0000      -7.065870      -192.2721
  12   1.0000      -7.064756      -192.2418
  13   1.0000      -7.064756      -192.2418
  14   1.0000      -2.942259       -80.0629
  15   1.0000      -2.941656       -80.0465
  16   1.0000      -2.941656       -80.0465
  17   1.0000      -2.940620       -80.0183
  18   1.0000      -2.940608       -80.0180
  19   1.0000      -2.735652       -74.4409
  20   1.0000      -1.751419       -47.6585
  21   1.0000      -1.751419       -47.6585
  22   1.0000      -1.715383       -46.6779
  23   1.0000      -0.874205       -23.7883
  24   1.0000      -0.394134       -10.7249
  25   1.0000      -0.354637        -9.6502
  26   1.0000      -0.354637        -9.6502
  27   1.0000      -0.319352        -8.6900
  28   1.0000      -0.319351        -8.6900
  29   1.0000      -0.232643        -6.3305
  30   0.0000      -0.017644        -0.4801
  31   0.0000      -0.008165        -0.2222
  32   0.0000      -0.008165        -0.2222
  33   0.0000       0.045838         1.2473
  34   0.0000       0.051599         1.4041

                 SPIN DOWN ORBITALS
  NO   OCC          E(Eh)            E(eV)
   0   1.0000    -487.406176    -13262.9963
   1   1.0000    -181.690841     -4944.0591
   2   1.0000     -64.159270     -1745.8625
   3   1.0000     -57.679027     -1569.5261
   4   1.0000     -57.678923     -1569.5233
   5   1.0000     -57.678923     -1569.5233
   6   1.0000     -20.841281      -567.1201
   7   1.0000     -17.359358      -472.3721
   8   1.0000     -17.324865      -471.4336
   9   1.0000     -17.324865      -471.4336
  10   1.0000      -9.380285      -255.2505
  11   1.0000      -7.066249      -192.2824
  12   1.0000      -7.065157      -192.2527
  13   1.0000      -7.065157      -192.2527
  14   1.0000      -2.942429       -80.0676
  15   1.0000      -2.941877       -80.0525
  16   1.0000      -2.941877       -80.0525
  17   1.0000      -2.940848       -80.0245
  18   1.0000      -2.940836       -80.0242
  19   1.0000      -2.624392       -71.4134
  20   1.0000      -1.673325       -45.5335
  21   1.0000      -1.576689       -42.9039
  22   1.0000      -1.576689       -42.9039
  23   1.0000      -0.876138       -23.8409
  24   1.0000      -0.390963       -10.6387
  25   1.0000      -0.355939        -9.6856
  26   1.0000      -0.355939        -9.6856
  27   0.0000      -0.036815        -1.0018
  28   0.0000       0.019424         0.5286
  29   0.0000       0.019424         0.5286
  30   0.0000       0.026483         0.7206
  31   0.0000       0.058969         1.6046

MULLIKEN ATOMIC CHARGES AND SPIN POPULATIONS
--------------------------------------------
   0 Ti:    0.349683    3.038892
   1 Br:   -0.349683   -0.038892
Sum of atomic charges         :   -0.0000000

LOEWDIN ATOMIC CHARGES AND SPIN POPULATIONS
-------------------------------------------
   0 Ti:    0.084585    2.893244
   1 Br:   -0.084585    0.106756

  Mayer bond orders larger than 0.100000
B(  0-Ti,  1-Br) :   1.0633

MP2 TOTAL ENERGY:    -3422.621980059 Eh
Dispersion correction           -0.004441371
FINAL SINGLE POINT ENERGY     -3422.626421430416

DIPOLE MOMENT
-------------
                                X             Y             Z
Electronic contribution:     -0.00000       0.00000       1.14163
Nuclear contribution   :      0.00000       0.00000      -2.90920
                        -----------------------------------------
Total Dipole Moment    :     -0.00000       0.00000      -1.76757
                        -----------------------------------------
Magnitude (a.u.)       :      1.76757
Magnitude (Debye)      :      4.49280

Rotational constants in cm-1:     0.000000     0.096120     0.096120
Rotational constants in MHz :     0.000000  2881.611529  2881.611529

                             ****ORCA TERMINATED NORMALLY****
TOTAL RUN TIME: 0 days 0 hours 0 minutes 9 seconds 17 msec
