                         Program Version 4.2.0 -  RELEASE  -
|  1> #
|  2> # TMD17_CrS ri-DSD-BLYP/2013-D3BJ/Def2-TZVPPD
|  3> #
|  4> ! rijk ri-dsd-blyp/2013 d3bj def2-tzvppd def2/jk def2-tzvppd/c grid4 nofinalgrid
|  5>
|  6> *xyz 0 5
|  7> Cr       0.000000    0.000000    0.836000
|  8> S        0.000000    0.000000   -1.254000
|  9> *
| 10>
| 11> %maxcore 5000
| 12>
| 13> %pal
| 14> nprocs = 24
| 15> end
| 16>
| 17>
| 18>                          ****END OF INPUT****

CARTESIAN COORDINATES (ANGSTROEM)
---------------------------------
  Cr     0.000000    0.000000    0.836000
  S      0.000000    0.000000   -1.254000

 Total Charge           Charge          ....    0
 Multiplicity           Mult            ....    5
 Number of Electrons    NEL             ....   40
 Basis Dimension        Dim             ....  118

ORBITAL ENERGIES
----------------
                 SPIN UP ORBITALS
  NO   OCC          E(Eh)            E(eV)
   0   1.0000    -218.752135     -5952.5482
   1   1.0000     -90.791382     -2470.5591
   2   1.0000     -25.740731      -700.4409
   3   1.0000     -21.799057      -593.1825
   4   1.0000     -21.798646      -593.1713
   5   1.0000     -21.797033      -593.1274
   6   1.0000      -8.538426      -232.3424
   7   1.0000      -6.319188      -171.9538
   8   1.0000      -6.318135      -171.9252
   9   1.0000      -6.311296      -171.7391
  10   1.0000      -3.305669       -89.9518
  11   1.0000      -2.160766       -58.7974
  12   1.0000      -2.160462       -58.7892
  13   1.0000      -2.158665       -58.7403
  14   1.0000      -0.729285       -19.8448
  15   1.0000      -0.394949       -10.7471
  16   1.0000      -0.367886       -10.0107
  17   1.0000      -0.365185        -9.9372
  18   1.0000      -0.361101        -9.8261
  19   1.0000      -0.355243        -9.6667
  20   1.0000      -0.270504        -7.3608
  21   1.0000      -0.265978        -7.2376
  22   0.0000      -0.038435        -1.0459
  23   0.0000      -0.031564        -0.8589
  24   0.0000       0.021940         0.5970
  25   0.0000       0.034477         0.9382
  26   0.0000       0.048824         1.3286

                 SPIN DOWN ORBITALS
  NO   OCC          E(Eh)            E(eV)
   0   1.0000    -218.750379     -5952.5004
   1   1.0000     -90.800467     -2470.8063
   2   1.0000     -25.658144      -698.1936
   3   1.0000     -21.725042      -591.1684
   4   1.0000     -21.719648      -591.0217
   5   1.0000     -21.716191      -590.9276
   6   1.0000      -8.546914      -232.5734
   7   1.0000      -6.340620      -172.5370
   8   1.0000      -6.328154      -172.1978
   9   1.0000      -6.324615      -172.1015
  10   1.0000      -3.037483       -82.6541
  11   1.0000      -1.859142       -50.5898
  12   1.0000      -1.840128       -50.0724
  13   1.0000      -1.832275       -49.8587
  14   1.0000      -0.805883       -21.9292
  15   1.0000      -0.361417        -9.8347
  16   1.0000      -0.344188        -9.3658
  17   1.0000      -0.312282        -8.4976
  18   0.0000      -0.029703        -0.8083
  19   0.0000       0.025269         0.6876
  20   0.0000       0.028362         0.7718
  21   0.0000       0.040002         1.0885
  22   0.0000       0.072950         1.9851

MULLIKEN ATOMIC CHARGES AND SPIN POPULATIONS
--------------------------------------------
   0 Cr:    0.478886    5.113188
   1 S :   -0.478886   -1.113188
Sum of atomic charges         :   -0.0000000

LOEWDIN ATOMIC CHARGES AND SPIN POPULATIONS
-------------------------------------------
   0 Cr:    0.058449    4.775251
   1 S :   -0.058449   -0.775251

  Mayer bond orders larger than 0.100000
B(  0-Cr,  1-S ) :   1.1365

MP2 TOTAL ENERGY:    -1442.104816329 Eh
Dispersion correction           -0.004101824
FINAL SINGLE POINT ENERGY     -1442.108918153483

DIPOLE MOMENT
-------------
                                X             Y             Z
Electronic contribution:     -0.00000       0.00000       5.15680
Nuclear contribution   :      0.00000       0.00000      -2.93936
                        -----------------------------------------
Total Dipole Moment    :     -0.00000       0.00000       2.21744
                        -----------------------------------------
Magnitude (a.u.)       :      2.21744
Magnitude (Debye)      :      5.63628

Rotational constants in cm-1:     0.000000     0.194593     0.194593
Rotational constants in MHz :     0.000000  5833.746532  5833.746532

                             ****ORCA TERMINATED NORMALLY****
TOTAL RUN TIME: 0 days 0 hours 0 minutes 16 seconds 989 msec
