                         Program Version 4.2.0 -  RELEASE  -
|  1> #
|  2> # TMD11_Fe ri-DSD-BLYP/2013-D3BJ/Def2-TZVPPD
|  3> #
|  4> ! rijk ri-dsd-blyp/2013 d3bj def2-tzvppd def2/jk def2-tzvppd/c grid4 nofinalgrid
|  5>
|  6> *xyz 0 5
|  7> Fe       0.000000    0.000000    0.000000
|  8> *
|  9>
| 10> %maxcore 5000
| 11>
| 12> %pal
| 13> nprocs = 24
| 14> end
| 15>
| 16>
| 17>                          ****END OF INPUT****

CARTESIAN COORDINATES (ANGSTROEM)
---------------------------------
  Fe     0.000000    0.000000    0.000000

 Total Charge           Charge          ....    0
 Multiplicity           Mult            ....    5
 Number of Electrons    NEL             ....   26
 Basis Dimension        Dim             ....   67

ORBITAL ENERGIES
----------------
                 SPIN UP ORBITALS
  NO   OCC          E(Eh)            E(eV)
   0   1.0000    -259.320064     -7056.4577
   1   1.0000     -31.100751      -846.2945
   2   1.0000     -26.717781      -727.0278
   3   1.0000     -26.717728      -727.0263
   4   1.0000     -26.717672      -727.0248
   5   1.0000      -3.843156      -104.5776
   6   1.0000      -2.515104       -68.4394
   7   1.0000      -2.514987       -68.4363
   8   1.0000      -2.514855       -68.4327
   9   1.0000      -0.384767       -10.4700
  10   1.0000      -0.384714       -10.4686
  11   1.0000      -0.384667       -10.4673
  12   1.0000      -0.341789        -9.3006
  13   1.0000      -0.341778        -9.3002
  14   1.0000      -0.213131        -5.7996
  15   0.0000       0.018913         0.5146
  16   0.0000       0.018916         0.5147
  17   0.0000       0.018931         0.5151
  18   0.0000       0.160331         4.3628
  19   0.0000       0.160336         4.3630

                 SPIN DOWN ORBITALS
  NO   OCC          E(Eh)            E(eV)
   0   1.0000    -259.317023     -7056.3749
   1   1.0000     -31.025819      -844.2555
   2   1.0000     -26.648439      -725.1409
   3   1.0000     -26.648427      -725.1406
   4   1.0000     -26.648426      -725.1405
   5   1.0000      -3.631215       -98.8104
   6   1.0000      -2.270456       -61.7822
   7   1.0000      -2.270396       -61.7806
   8   1.0000      -2.270337       -61.7790
   9   1.0000      -0.258803        -7.0424
  10   1.0000      -0.258776        -7.0417
  11   0.0000      -0.019951        -0.5429
  12   0.0000       0.039421         1.0727
  13   0.0000       0.039434         1.0731
  14   0.0000       0.039440         1.0732
  15   0.0000       0.190365         5.1801

MULLIKEN ATOMIC CHARGES AND SPIN POPULATIONS
--------------------------------------------
   0 Fe:   -0.000000    4.000000
Sum of atomic charges         :   -0.0000000

LOEWDIN ATOMIC CHARGES AND SPIN POPULATIONS
-------------------------------------------
   0 Fe:   -0.000000    4.000000

MP2 TOTAL ENERGY:    -1263.319498456 Eh
Dispersion correction            0.000000000
FINAL SINGLE POINT ENERGY     -1263.319498455550

DIPOLE MOMENT
-------------
                                X             Y             Z
Electronic contribution:      0.00000       0.00000       0.00000
Nuclear contribution   :      0.00000       0.00000       0.00000
                        -----------------------------------------
Total Dipole Moment    :      0.00000       0.00000       0.00000
                        -----------------------------------------
Magnitude (a.u.)       :      0.00000
Magnitude (Debye)      :      0.00000

Rotational constants in cm-1:     0.000000     0.000000     0.000000
Rotational constants in MHz :     0.000000     0.000000     0.000000

                             ****ORCA TERMINATED NORMALLY****
TOTAL RUN TIME: 0 days 0 hours 0 minutes 3 seconds 991 msec
