                         Program Version 4.2.0 -  RELEASE  -
|  1> #
|  2> # TMD16_VO ri-DSD-BLYP/2013-D3BJ/Def2-TZVPPD
|  3> #
|  4> ! rijk ri-dsd-blyp/2013 d3bj def2-tzvppd def2/jk def2-tzvppd/c grid4 nofinalgrid
|  5>
|  6> *xyz 0 4
|  7> V        0.000000    0.000000    0.412903
|  8> O        0.000000    0.000000   -1.187097
|  9> *
| 10>
| 11> %maxcore 5000
| 12>
| 13> %pal
| 14> nprocs = 24
| 15> end
| 16>
| 17>
| 18>                          ****END OF INPUT****

CARTESIAN COORDINATES (ANGSTROEM)
---------------------------------
  V      0.000000    0.000000    0.412903
  O      0.000000    0.000000   -1.187097

 Total Charge           Charge          ....    0
 Multiplicity           Mult            ....    4
 Number of Electrons    NEL             ....   31
 Basis Dimension        Dim             ....  107

ORBITAL ENERGIES
----------------
                 SPIN UP ORBITALS
  NO   OCC          E(Eh)            E(eV)
   0   1.0000    -199.864073     -5438.5779
   1   1.0000     -23.327457      -634.7724
   2   1.0000     -20.008359      -544.4551
   3   1.0000     -19.604526      -533.4663
   4   1.0000     -19.600430      -533.3548
   5   1.0000     -19.600430      -533.3548
   6   1.0000      -3.065236       -83.4093
   7   1.0000      -1.996218       -54.3199
   8   1.0000      -1.996218       -54.3199
   9   1.0000      -1.975895       -53.7668
  10   1.0000      -1.038739       -28.2655
  11   1.0000      -0.420834       -11.4515
  12   1.0000      -0.395722       -10.7681
  13   1.0000      -0.395722       -10.7681
  14   1.0000      -0.390188       -10.6176
  15   1.0000      -0.390188       -10.6176
  16   1.0000      -0.246190        -6.6992
  17   0.0000      -0.010619        -0.2890
  18   0.0000      -0.010619        -0.2890
  19   0.0000      -0.007534        -0.2050
  20   0.0000       0.061936         1.6854
  21   0.0000       0.066833         1.8186

                 SPIN DOWN ORBITALS
  NO   OCC          E(Eh)            E(eV)
   0   1.0000    -199.862474     -5438.5344
   1   1.0000     -23.283292      -633.5706
   2   1.0000     -20.029281      -545.0244
   3   1.0000     -19.584031      -532.9086
   4   1.0000     -19.549318      -531.9640
   5   1.0000     -19.549318      -531.9640
   6   1.0000      -2.916547       -79.3633
   7   1.0000      -1.888575       -51.3907
   8   1.0000      -1.780527       -48.4506
   9   1.0000      -1.780527       -48.4506
  10   1.0000      -1.098127       -29.8816
  11   1.0000      -0.460375       -12.5274
  12   1.0000      -0.433945       -11.8083
  13   1.0000      -0.433945       -11.8083
  14   0.0000      -0.036964        -1.0059
  15   0.0000       0.022758         0.6193
  16   0.0000       0.022758         0.6193
  17   0.0000       0.035966         0.9787
  18   0.0000       0.085875         2.3368

MULLIKEN ATOMIC CHARGES AND SPIN POPULATIONS
--------------------------------------------
   0 V :    0.810409    3.426146
   1 O :   -0.810409   -0.426146
Sum of atomic charges         :   -0.0000000

LOEWDIN ATOMIC CHARGES AND SPIN POPULATIONS
-------------------------------------------
   0 V :    0.501929    3.256744
   1 O :   -0.501929   -0.256744

  Mayer bond orders larger than 0.100000
B(  0-V ,  1-O ) :   2.0746

MP2 TOTAL ENERGY:    -1018.854813451 Eh
Dispersion correction           -0.001488640
FINAL SINGLE POINT ENERGY     -1018.856302091307

DIPOLE MOMENT
-------------
                                X             Y             Z
Electronic contribution:     -0.00000       0.00000       3.43207
Nuclear contribution   :      0.00000       0.00000      -1.78611
                        -----------------------------------------
Total Dipole Moment    :     -0.00000       0.00000       1.64596
                        -----------------------------------------
Magnitude (a.u.)       :      1.64596
Magnitude (Debye)      :      4.18369

Rotational constants in cm-1:     0.000000     0.540859     0.540859
Rotational constants in MHz :     0.000000 16214.556702 16214.556702

                             ****ORCA TERMINATED NORMALLY****
TOTAL RUN TIME: 0 days 0 hours 0 minutes 5 seconds 656 msec
