                         Program Version 4.2.0 -  RELEASE  -
|  1> #
|  2> # TMD13_Cu ri-DSD-BLYP/2013-D3BJ/Def2-TZVPPD
|  3> #
|  4> ! rijk ri-dsd-blyp/2013 d3bj def2-tzvppd def2/jk def2-tzvppd/c grid4 nofinalgrid
|  5>
|  6> *xyz 0 2
|  7> Cu       0.000000    0.000000    0.000000
|  8> *
|  9>
| 10> %maxcore 5000
| 11>
| 12> %pal
| 13> nprocs = 24
| 14> end
| 15>
| 16>
| 17>                          ****END OF INPUT****

CARTESIAN COORDINATES (ANGSTROEM)
---------------------------------
  Cu     0.000000    0.000000    0.000000

 Total Charge           Charge          ....    0
 Multiplicity           Mult            ....    2
 Number of Electrons    NEL             ....   29
 Basis Dimension        Dim             ....   67

ORBITAL ENERGIES
----------------
                 SPIN UP ORBITALS
  NO   OCC          E(Eh)            E(eV)
   0   1.0000    -326.713621     -8890.3296
   1   1.0000     -40.084341     -1090.7504
   2   1.0000     -35.028865      -953.1839
   3   1.0000     -35.028865      -953.1839
   4   1.0000     -35.028865      -953.1839
   5   1.0000      -4.745183      -129.1230
   6   1.0000      -3.120868       -84.9231
   7   1.0000      -3.120868       -84.9231
   8   1.0000      -3.120868       -84.9231
   9   1.0000      -0.405095       -11.0232
  10   1.0000      -0.405095       -11.0232
  11   1.0000      -0.405095       -11.0232
  12   1.0000      -0.405095       -11.0232
  13   1.0000      -0.405095       -11.0232
  14   1.0000      -0.225344        -6.1319
  15   0.0000       0.024208         0.6587
  16   0.0000       0.024208         0.6587
  17   0.0000       0.024208         0.6587
  18   0.0000       0.146052         3.9743
  19   0.0000       0.182489         4.9658

                 SPIN DOWN ORBITALS
  NO   OCC          E(Eh)            E(eV)
   0   1.0000    -326.711918     -8890.2833
   1   1.0000     -40.084353     -1090.7507
   2   1.0000     -35.030252      -953.2216
   3   1.0000     -35.030252      -953.2216
   4   1.0000     -35.030252      -953.2216
   5   1.0000      -4.743110      -129.0666
   6   1.0000      -3.123223       -84.9872
   7   1.0000      -3.123223       -84.9872
   8   1.0000      -3.123223       -84.9872
   9   1.0000      -0.405822       -11.0430
  10   1.0000      -0.405822       -11.0430
  11   1.0000      -0.405822       -11.0430
  12   1.0000      -0.405822       -11.0430
  13   1.0000      -0.405822       -11.0430
  14   0.0000      -0.030686        -0.8350
  15   0.0000       0.043062         1.1718
  16   0.0000       0.043062         1.1718
  17   0.0000       0.043062         1.1718
  18   0.0000       0.176053         4.7906

MULLIKEN ATOMIC CHARGES AND SPIN POPULATIONS
--------------------------------------------
   0 Cu:   -0.000000    1.000000
Sum of atomic charges         :   -0.0000000

LOEWDIN ATOMIC CHARGES AND SPIN POPULATIONS
-------------------------------------------
   0 Cu:   -0.000000    1.000000

MP2 TOTAL ENERGY:    -1640.147944075 Eh
Dispersion correction            0.000000000
FINAL SINGLE POINT ENERGY     -1640.147944074672

DIPOLE MOMENT
-------------
                                X             Y             Z
Electronic contribution:     -0.00000       0.00000       0.00000
Nuclear contribution   :      0.00000       0.00000       0.00000
                        -----------------------------------------
Total Dipole Moment    :     -0.00000       0.00000       0.00000
                        -----------------------------------------
Magnitude (a.u.)       :      0.00000
Magnitude (Debye)      :      0.00000

Rotational constants in cm-1:     0.000000     0.000000     0.000000
Rotational constants in MHz :     0.000000     0.000000     0.000000

                             ****ORCA TERMINATED NORMALLY****
TOTAL RUN TIME: 0 days 0 hours 0 minutes 3 seconds 513 msec
