                         Program Version 4.2.0 -  RELEASE  -
|  1> #
|  2> # TMD19_FeCl ri-DSD-BLYP/2013-D3BJ/Def2-TZVPPD
|  3> #
|  4> ! rijk ri-dsd-blyp/2013 d3bj def2-tzvppd def2/jk def2-tzvppd/c grid4 nofinalgrid
|  5>
|  6> *xyz 0 6
|  7> Fe       0.000000    0.000000    0.869767
|  8> Cl       0.000000    0.000000   -1.330233
|  9> *
| 10>
| 11> %maxcore 5000
| 12>
| 13> %pal
| 14> nprocs = 24
| 15> end
| 16>
| 17>
| 18>                          ****END OF INPUT****

CARTESIAN COORDINATES (ANGSTROEM)
---------------------------------
  Fe     0.000000    0.000000    0.869767
  Cl     0.000000    0.000000   -1.330233

 Total Charge           Charge          ....    0
 Multiplicity           Mult            ....    6
 Number of Electrons    NEL             ....   43
 Basis Dimension        Dim             ....  118

ORBITAL ENERGIES
----------------
                 SPIN UP ORBITALS
  NO   OCC          E(Eh)            E(eV)
   0   1.0000    -259.536166     -7062.3381
   1   1.0000    -103.603543     -2819.1957
   2   1.0000     -31.355946      -853.2387
   3   1.0000     -26.990400      -734.4461
   4   1.0000     -26.958824      -733.5869
   5   1.0000     -26.958824      -733.5869
   6   1.0000     -10.120983      -275.4060
   7   1.0000      -7.693457      -209.3496
   8   1.0000      -7.691895      -209.3071
   9   1.0000      -7.691895      -209.3071
  10   1.0000      -4.114596      -111.9638
  11   1.0000      -2.829265       -76.9882
  12   1.0000      -2.761283       -75.1383
  13   1.0000      -2.761283       -75.1383
  14   1.0000      -0.954092       -25.9622
  15   1.0000      -0.644098       -17.5268
  16   1.0000      -0.636482       -17.3195
  17   1.0000      -0.636482       -17.3195
  18   1.0000      -0.609877       -16.5956
  19   1.0000      -0.565370       -15.3845
  20   1.0000      -0.435775       -11.8581
  21   1.0000      -0.389993       -10.6122
  22   1.0000      -0.389993       -10.6122
  23   1.0000      -0.267970        -7.2918
  24   0.0000       0.003350         0.0912
  25   0.0000       0.003350         0.0912
  26   0.0000       0.043039         1.1712
  27   0.0000       0.082164         2.2358
  28   0.0000       0.101280         2.7560

                 SPIN DOWN ORBITALS
  NO   OCC          E(Eh)            E(eV)
   0   1.0000    -259.531787     -7062.2190
   1   1.0000    -103.602207     -2819.1594
   2   1.0000     -31.248541      -850.3160
   3   1.0000     -26.871237      -731.2035
   4   1.0000     -26.867683      -731.1068
   5   1.0000     -26.867683      -731.1068
   6   1.0000     -10.119672      -275.3703
   7   1.0000      -7.690748      -209.2759
   8   1.0000      -7.690287      -209.2634
   9   1.0000      -7.690287      -209.2634
  10   1.0000      -3.820999      -103.9747
  11   1.0000      -2.456369       -66.8412
  12   1.0000      -2.456369       -66.8412
  13   1.0000      -2.419456       -65.8368
  14   1.0000      -0.942896       -25.6575
  15   1.0000      -0.444437       -12.0937
  16   1.0000      -0.438099       -11.9213
  17   1.0000      -0.391609       -10.6562
  18   1.0000      -0.391609       -10.6562
  19   0.0000      -0.044554        -1.2124
  20   0.0000       0.027238         0.7412
  21   0.0000       0.027238         0.7412
  22   0.0000       0.038497         1.0475
  23   0.0000       0.067419         1.8346

MULLIKEN ATOMIC CHARGES AND SPIN POPULATIONS
--------------------------------------------
   0 Fe:    0.538825    4.961604
   1 Cl:   -0.538825    0.038396
Sum of atomic charges         :   -0.0000000

LOEWDIN ATOMIC CHARGES AND SPIN POPULATIONS
-------------------------------------------
   0 Fe:    0.280717    4.779308
   1 Cl:   -0.280717    0.220692

  Mayer bond orders larger than 0.100000
B(  0-Fe,  1-Cl) :   0.6599

MP2 TOTAL ENERGY:    -1723.388012230 Eh
Dispersion correction           -0.002634837
FINAL SINGLE POINT ENERGY     -1723.390647066559

DIPOLE MOMENT
-------------
                                X             Y             Z
Electronic contribution:      0.00000      -0.00000       2.40411
Nuclear contribution   :      0.00000       0.00000      -1.26002
                        -----------------------------------------
Total Dipole Moment    :      0.00000      -0.00000       1.14409
                        -----------------------------------------
Magnitude (a.u.)       :      1.14409
Magnitude (Debye)      :      2.90806

Rotational constants in cm-1:     0.000000     0.160606     0.160606
Rotational constants in MHz :     0.000000  4814.831818  4814.831818

                             ****ORCA TERMINATED NORMALLY****
TOTAL RUN TIME: 0 days 0 hours 0 minutes 4 seconds 350 msec
