                         Program Version 4.2.0 -  RELEASE  -
|  1> #
|  2> # TMD10_Mn ri-DSD-BLYP/2013-D3BJ/Def2-TZVPPD
|  3> #
|  4> ! rijk ri-dsd-blyp/2013 d3bj def2-tzvppd def2/jk def2-tzvppd/c grid4 nofinalgrid
|  5>
|  6> *xyz 0 6
|  7> Mn       0.000000    0.000000    0.000000
|  8> *
|  9>
| 10> %maxcore 5000
| 11>
| 12> %pal
| 13> nprocs = 24
| 14> end
| 15>
| 16>
| 17>                          ****END OF INPUT****

CARTESIAN COORDINATES (ANGSTROEM)
---------------------------------
  Mn     0.000000    0.000000    0.000000

 Total Charge           Charge          ....    0
 Multiplicity           Mult            ....    6
 Number of Electrons    NEL             ....   25
 Basis Dimension        Dim             ....   67

ORBITAL ENERGIES
----------------
                 SPIN UP ORBITALS
  NO   OCC          E(Eh)            E(eV)
   0   1.0000    -238.578898     -6492.0619
   1   1.0000     -28.333815      -771.0023
   2   1.0000     -24.188030      -658.1898
   3   1.0000     -24.167686      -657.6362
   4   1.0000     -24.160653      -657.4448
   5   1.0000      -3.549661       -96.5912
   6   1.0000      -2.352792       -64.0227
   7   1.0000      -2.304349       -62.7045
   8   1.0000      -2.287628       -62.2495
   9   1.0000      -0.368190       -10.0190
  10   1.0000      -0.364076        -9.9070
  11   1.0000      -0.357543        -9.7292
  12   1.0000      -0.338654        -9.2153
  13   1.0000      -0.300171        -8.1681
  14   1.0000      -0.209510        -5.7011
  15   0.0000       0.012305         0.3348
  16   0.0000       0.016686         0.4541
  17   0.0000       0.018265         0.4970
  18   0.0000       0.139282         3.7901
  19   0.0000       0.145156         3.9499

                 SPIN DOWN ORBITALS
  NO   OCC          E(Eh)            E(eV)
   0   1.0000    -238.575864     -6491.9793
   1   1.0000     -28.247000      -768.6400
   2   1.0000     -24.093702      -655.6230
   3   1.0000     -24.090484      -655.5354
   4   1.0000     -24.089375      -655.5052
   5   1.0000      -3.288077       -89.4731
   6   1.0000      -2.023010       -55.0489
   7   1.0000      -2.015980       -54.8576
   8   1.0000      -1.994268       -54.2668
   9   1.0000      -0.181808        -4.9472
  10   0.0000      -0.016767        -0.4562
  11   0.0000       0.036114         0.9827
  12   0.0000       0.036364         0.9895
  13   0.0000       0.036594         0.9958
  14   0.0000       0.175520         4.7761

MULLIKEN ATOMIC CHARGES AND SPIN POPULATIONS
--------------------------------------------
   0 Mn:   -0.000000    5.000000
Sum of atomic charges         :   -0.0000000

LOEWDIN ATOMIC CHARGES AND SPIN POPULATIONS
-------------------------------------------
   0 Mn:   -0.000000    5.000000

MP2 TOTAL ENERGY:    -1150.601818842 Eh
Dispersion correction            0.000000000
FINAL SINGLE POINT ENERGY     -1150.601818841615

DIPOLE MOMENT
-------------
                                X             Y             Z
Electronic contribution:      0.00000      -0.00000      -0.00000
Nuclear contribution   :      0.00000       0.00000       0.00000
                        -----------------------------------------
Total Dipole Moment    :      0.00000      -0.00000      -0.00000
                        -----------------------------------------
Magnitude (a.u.)       :      0.00000
Magnitude (Debye)      :      0.00000

Rotational constants in cm-1:     0.000000     0.000000     0.000000
Rotational constants in MHz :     0.000000     0.000000     0.000000

                             ****ORCA TERMINATED NORMALLY****
TOTAL RUN TIME: 0 days 0 hours 0 minutes 4 seconds 260 msec
