                         Program Version 4.2.0 -  RELEASE  -
|  1> #
|  2> # TMD18_MnBr ri-DSD-BLYP/2013-D3BJ/Def2-TZVPPD
|  3> #
|  4> ! rijk ri-dsd-blyp/2013 d3bj def2-tzvppd def2/jk def2-tzvppd/c grid4 nofinalgrid
|  5>
|  6> *xyz 0 7
|  7> Mn       0.000000    0.000000   -1.400000
|  8> Br       0.000000    0.000000    1.000000
|  9> *
| 10>
| 11> %maxcore 5000
| 12>
| 13> %pal
| 14> nprocs = 24
| 15> end
| 16>
| 17>
| 18>                          ****END OF INPUT****

CARTESIAN COORDINATES (ANGSTROEM)
---------------------------------
  Mn     0.000000    0.000000   -1.400000
  Br     0.000000    0.000000    1.000000

 Total Charge           Charge          ....    0
 Multiplicity           Mult            ....    7
 Number of Electrons    NEL             ....   60
 Basis Dimension        Dim             ....  124

ORBITAL ENERGIES
----------------
                 SPIN UP ORBITALS
  NO   OCC          E(Eh)            E(eV)
   0   1.0000    -487.409029    -13263.0740
   1   1.0000    -238.779690     -6497.5257
   2   1.0000     -64.161948     -1745.9354
   3   1.0000     -57.681981     -1569.6065
   4   1.0000     -57.681493     -1569.5932
   5   1.0000     -57.681493     -1569.5932
   6   1.0000     -28.571612      -777.4731
   7   1.0000     -24.406894      -664.1454
   8   1.0000     -24.406894      -664.1454
   9   1.0000     -24.406061      -664.1227
  10   1.0000      -9.382984      -255.3240
  11   1.0000      -7.069559      -192.3725
  12   1.0000      -7.067465      -192.3155
  13   1.0000      -7.067465      -192.3155
  14   1.0000      -3.806537      -103.5811
  15   1.0000      -2.945551       -80.1525
  16   1.0000      -2.944728       -80.1301
  17   1.0000      -2.944728       -80.1301
  18   1.0000      -2.942901       -80.0804
  19   1.0000      -2.942889       -80.0801
  20   1.0000      -2.570772       -69.9543
  21   1.0000      -2.570772       -69.9543
  22   1.0000      -2.569035       -69.9070
  23   1.0000      -0.883465       -24.0403
  24   1.0000      -0.583831       -15.8869
  25   1.0000      -0.583831       -15.8869
  26   1.0000      -0.582757       -15.8576
  27   1.0000      -0.582757       -15.8576
  28   1.0000      -0.582592       -15.8531
  29   1.0000      -0.401196       -10.9171
  30   1.0000      -0.353107        -9.6085
  31   1.0000      -0.353107        -9.6085
  32   1.0000      -0.260580        -7.0907
  33   0.0000      -0.004381        -0.1192
  34   0.0000      -0.004381        -0.1192
  35   0.0000       0.036566         0.9950
  36   0.0000       0.070148         1.9088
  37   0.0000       0.081554         2.2192

                 SPIN DOWN ORBITALS
  NO   OCC          E(Eh)            E(eV)
   0   1.0000    -487.408653    -13263.0637
   1   1.0000    -238.775333     -6497.4071
   2   1.0000     -64.161691     -1745.9284
   3   1.0000     -57.681374     -1569.5900
   4   1.0000     -57.681218     -1569.5857
   5   1.0000     -57.681218     -1569.5857
   6   1.0000     -28.454683      -774.2913
   7   1.0000     -24.297032      -661.1558
   8   1.0000     -24.297032      -661.1558
   9   1.0000     -24.295631      -661.1177
  10   1.0000      -9.382236      -255.3036
  11   1.0000      -7.068305      -192.3384
  12   1.0000      -7.066845      -192.2986
  13   1.0000      -7.066845      -192.2986
  14   1.0000      -3.466517       -94.3287
  15   1.0000      -2.944911       -80.1351
  16   1.0000      -2.944162       -80.1147
  17   1.0000      -2.944162       -80.1147
  18   1.0000      -2.942529       -80.0703
  19   1.0000      -2.942517       -80.0700
  20   1.0000      -2.175968       -59.2111
  21   1.0000      -2.175968       -59.2111
  22   1.0000      -2.170601       -59.0650
  23   1.0000      -0.875297       -23.8180
  24   1.0000      -0.397369       -10.8130
  25   1.0000      -0.355448        -9.6722
  26   1.0000      -0.355448        -9.6722
  27   0.0000      -0.042063        -1.1446
  28   0.0000       0.023704         0.6450
  29   0.0000       0.023704         0.6450
  30   0.0000       0.037574         1.0224
  31   0.0000       0.064151         1.7456

MULLIKEN ATOMIC CHARGES AND SPIN POPULATIONS
--------------------------------------------
   0 Mn:    0.473671    5.998759
   1 Br:   -0.473671    0.001241
Sum of atomic charges         :    0.0000000

LOEWDIN ATOMIC CHARGES AND SPIN POPULATIONS
-------------------------------------------
   0 Mn:    0.270307    5.791751
   1 Br:   -0.270307    0.208249

  Mayer bond orders larger than 0.100000
B(  0-Mn,  1-Br) :   0.6981

MP2 TOTAL ENERGY:    -3724.223676500 Eh
Dispersion correction           -0.003604302
FINAL SINGLE POINT ENERGY     -3724.227280801941

DIPOLE MOMENT
-------------
                                X             Y             Z
Electronic contribution:      0.00000      -0.00000       1.16549
Nuclear contribution   :      0.00000       0.00000      -2.50917
                        -----------------------------------------
Total Dipole Moment    :      0.00000      -0.00000      -1.34368
                        -----------------------------------------
Magnitude (a.u.)       :      1.34368
Magnitude (Debye)      :      3.41536

Rotational constants in cm-1:     0.000000     0.089900     0.089900
Rotational constants in MHz :     0.000000  2695.122005  2695.122005

                             ****ORCA TERMINATED NORMALLY****
TOTAL RUN TIME: 0 days 0 hours 0 minutes 5 seconds 410 msec
