                         Program Version 4.2.0 -  RELEASE  -
|  1> #
|  2> # TMD21_CoH ri-DSD-BLYP/2013-D3BJ/Def2-TZVPPD
|  3> #
|  4> ! rijk ri-dsd-blyp/2013 d3bj def2-tzvppd def2/jk def2-tzvppd/c grid4 nofinalgrid
|  5>
|  6> *xyz 0 3
|  7> Co       0.000000    0.000000    0.053929
|  8> H        0.000000    0.000000   -1.456071
|  9> *
| 10>
| 11> %maxcore 5000
| 12>
| 13> %pal
| 14> nprocs = 24
| 15> end
| 16>
| 17>
| 18>                          ****END OF INPUT****

CARTESIAN COORDINATES (ANGSTROEM)
---------------------------------
  Co     0.000000    0.000000    0.053929
  H      0.000000    0.000000   -1.456071

 Total Charge           Charge          ....    0
 Multiplicity           Mult            ....    3
 Number of Electrons    NEL             ....   28
 Basis Dimension        Dim             ....   84

ORBITAL ENERGIES
----------------
                 SPIN UP ORBITALS
  NO   OCC          E(Eh)            E(eV)
   0   1.0000    -280.932023     -7644.5490
   1   1.0000     -33.992890      -924.9936
   2   1.0000     -29.387701      -799.6800
   3   1.0000     -29.387701      -799.6800
   4   1.0000     -29.386236      -799.6401
   5   1.0000      -4.146293      -112.8264
   6   1.0000      -2.722801       -74.0912
   7   1.0000      -2.721524       -74.0564
   8   1.0000      -2.721524       -74.0564
   9   1.0000      -0.425029       -11.5656
  10   1.0000      -0.418789       -11.3958
  11   1.0000      -0.374924       -10.2022
  12   1.0000      -0.374924       -10.2022
  13   1.0000      -0.372542       -10.1374
  14   1.0000      -0.281367        -7.6564
  15   0.0000      -0.014942        -0.4066
  16   0.0000       0.030335         0.8254
  17   0.0000       0.030335         0.8254
  18   0.0000       0.109947         2.9918
  19   0.0000       0.126185         3.4337

                 SPIN DOWN ORBITALS
  NO   OCC          E(Eh)            E(eV)
   0   1.0000    -280.930550     -7644.5089
   1   1.0000     -33.939357      -923.5369
   2   1.0000     -29.339028      -798.3555
   3   1.0000     -29.336675      -798.2915
   4   1.0000     -29.336675      -798.2915
   5   1.0000      -4.003341      -108.9364
   6   1.0000      -2.557207       -69.5851
   7   1.0000      -2.554765       -69.5187
   8   1.0000      -2.554765       -69.5187
   9   1.0000      -0.346170        -9.4198
  10   1.0000      -0.318888        -8.6774
  11   1.0000      -0.316432        -8.6105
  12   1.0000      -0.316432        -8.6105
  13   0.0000      -0.018149        -0.4939
  14   0.0000       0.037374         1.0170
  15   0.0000       0.037374         1.0170
  16   0.0000       0.083324         2.2674
  17   0.0000       0.133976         3.6457

MULLIKEN ATOMIC CHARGES AND SPIN POPULATIONS
--------------------------------------------
   0 Co:    0.206451    2.171486
   1 H :   -0.206451   -0.171486
Sum of atomic charges         :   -0.0000000

LOEWDIN ATOMIC CHARGES AND SPIN POPULATIONS
-------------------------------------------
   0 Co:    0.252348    2.053445
   1 H :   -0.252348   -0.053445

  Mayer bond orders larger than 0.100000
B(  0-Co,  1-H ) :   0.9199

MP2 TOTAL ENERGY:    -1382.976231170 Eh
Dispersion correction           -0.000610287
FINAL SINGLE POINT ENERGY     -1382.976841456277

DIPOLE MOMENT
-------------
                                X             Y             Z
Electronic contribution:      0.00000       0.00000       2.99765
Nuclear contribution   :      0.00000       0.00000      -1.50982
                        -----------------------------------------
Total Dipole Moment    :      0.00000       0.00000       1.48783
                        -----------------------------------------
Magnitude (a.u.)       :      1.48783
Magnitude (Debye)      :      3.78176

Rotational constants in cm-1:     0.000000     7.460162     7.460162
Rotational constants in MHz :     0.000000 223650.041735 223650.041735

                             ****ORCA TERMINATED NORMALLY****
TOTAL RUN TIME: 0 days 0 hours 0 minutes 4 seconds 226 msec
