                         Program Version 4.2.0 -  RELEASE  -
|  1> #
|  2> # TMD23_CuBr ri-DSD-BLYP/2013-D3BJ/Def2-TZVPPD
|  3> #
|  4> ! rijk ri-dsd-blyp/2013 d3bj def2-tzvppd def2/jk def2-tzvppd/c grid4 nofinalgrid
|  5>
|  6> *xyz 0 1
|  7> Cu       0.000000    0.000000   -1.208594
|  8> Br       0.000000    0.000000    1.001406
|  9> *
| 10>
| 11> %maxcore 5000
| 12>
| 13> %pal
| 14> nprocs = 24
| 15> end
| 16>
| 17>
| 18>                          ****END OF INPUT****

CARTESIAN COORDINATES (ANGSTROEM)
---------------------------------
  Cu     0.000000    0.000000   -1.208594
  Br     0.000000    0.000000    1.001406

 Total Charge           Charge          ....    0
 Multiplicity           Mult            ....    1
 Number of Electrons    NEL             ....   64
 Basis Dimension        Dim             ....  124

ORBITAL ENERGIES
----------------

  NO   OCC          E(Eh)            E(eV)
   0   2.0000    -487.394564    -13262.6803
   1   2.0000    -326.766955     -8891.7809
   2   2.0000     -64.147156     -1745.5328
   3   2.0000     -57.667352     -1569.2084
   4   2.0000     -57.666584     -1569.1875
   5   2.0000     -57.666584     -1569.1875
   6   2.0000     -40.139558     -1092.2529
   7   2.0000     -35.085386      -954.7219
   8   2.0000     -35.085386      -954.7219
   9   2.0000     -35.083768      -954.6779
  10   2.0000      -9.367718      -254.9086
  11   2.0000      -7.055132      -191.9799
  12   2.0000      -7.051676      -191.8859
  13   2.0000      -7.051676      -191.8859
  14   2.0000      -4.800637      -130.6320
  15   2.0000      -3.181409       -86.5706
  16   2.0000      -3.177858       -86.4739
  17   2.0000      -3.177858       -86.4739
  18   2.0000      -2.931488       -79.7698
  19   2.0000      -2.930112       -79.7324
  20   2.0000      -2.930112       -79.7324
  21   2.0000      -2.926678       -79.6390
  22   2.0000      -2.926666       -79.6386
  23   2.0000      -0.861209       -23.4347
  24   2.0000      -0.471804       -12.8384
  25   2.0000      -0.470418       -12.8007
  26   2.0000      -0.470418       -12.8007
  27   2.0000      -0.461172       -12.5491
  28   2.0000      -0.461171       -12.5491
  29   2.0000      -0.356435        -9.6991
  30   2.0000      -0.328733        -8.9453
  31   2.0000      -0.328733        -8.9453
  32   0.0000      -0.050366        -1.3705
  33   0.0000       0.033795         0.9196
  34   0.0000       0.033795         0.9196
  35   0.0000       0.050189         1.3657
  36   0.0000       0.088815         2.4168

MULLIKEN ATOMIC CHARGES
-----------------------
   0 Cu:    0.371897
   1 Br:   -0.371897
Sum of atomic charges:   -0.0000000

LOEWDIN ATOMIC CHARGES
----------------------
   0 Cu:    0.045298
   1 Br:   -0.045298

  Mayer bond orders larger than 0.100000
B(  0-Cu,  1-Br) :   0.9933

MP2 TOTAL ENERGY:    -4213.716249934 Eh
Dispersion correction           -0.003175894
FINAL SINGLE POINT ENERGY     -4213.719425828162

DIPOLE MOMENT
-------------
                                X             Y             Z
Electronic contribution:      0.00000       0.00000       0.35617
Nuclear contribution   :      0.00000       0.00000      -2.70316
                        -----------------------------------------
Total Dipole Moment    :      0.00000       0.00000      -2.34700
                        -----------------------------------------
Magnitude (a.u.)       :      2.34700
Magnitude (Debye)      :      5.96560

Rotational constants in cm-1:     0.000000     0.097510     0.097510
Rotational constants in MHz :     0.000000  2923.285786  2923.285786

                             ****ORCA TERMINATED NORMALLY****
TOTAL RUN TIME: 0 days 0 hours 0 minutes 4 seconds 895 msec
