                         Program Version 4.2.0 -  RELEASE  -
|  1> #
|  2> # TMD20_FeS ri-DSD-BLYP/2013-D3BJ/Def2-TZVPPD
|  3> #
|  4> ! rijk ri-dsd-blyp/2013 d3bj def2-tzvppd def2/jk def2-tzvppd/c grid4 nofinalgrid
|  5>
|  6> *xyz 0 5
|  7> Fe       0.000000    0.000000    0.769524
|  8> S        0.000000    0.000000   -1.250476
|  9> *
| 10>
| 11> %maxcore 5000
| 12>
| 13> %pal
| 14> nprocs = 24
| 15> end
| 16>
| 17>
| 18>                          ****END OF INPUT****

CARTESIAN COORDINATES (ANGSTROEM)
---------------------------------
  Fe     0.000000    0.000000    0.769524
  S      0.000000    0.000000   -1.250476

 Total Charge           Charge          ....    0
 Multiplicity           Mult            ....    5
 Number of Electrons    NEL             ....   42
 Basis Dimension        Dim             ....  118

ORBITAL ENERGIES
----------------
                 SPIN UP ORBITALS
  NO   OCC          E(Eh)            E(eV)
   0   1.0000    -259.520614     -7061.9149
   1   1.0000     -90.777137     -2470.1715
   2   1.0000     -31.336302      -852.7041
   3   1.0000     -26.969251      -733.8706
   4   1.0000     -26.940303      -733.0829
   5   1.0000     -26.940303      -733.0829
   6   1.0000      -8.523933      -231.9480
   7   1.0000      -6.305221      -171.5738
   8   1.0000      -6.305221      -171.5738
   9   1.0000      -6.301663      -171.4770
  10   1.0000      -4.089783      -111.2887
  11   1.0000      -2.803691       -76.2923
  12   1.0000      -2.736792       -74.4719
  13   1.0000      -2.736792       -74.4719
  14   1.0000      -0.766367       -20.8539
  15   1.0000      -0.617412       -16.8006
  16   1.0000      -0.617412       -16.8006
  17   1.0000      -0.599434       -16.3114
  18   1.0000      -0.586672       -15.9642
  19   1.0000      -0.542317       -14.7572
  20   1.0000      -0.308524        -8.3954
  21   1.0000      -0.282993        -7.7006
  22   1.0000      -0.282993        -7.7006
  23   0.0000      -0.078349        -2.1320
  24   0.0000       0.015250         0.4150
  25   0.0000       0.015250         0.4150
  26   0.0000       0.048252         1.3130
  27   0.0000       0.085758         2.3336

                 SPIN DOWN ORBITALS
  NO   OCC          E(Eh)            E(eV)
   0   1.0000    -259.517382     -7061.8270
   1   1.0000     -90.779549     -2470.2371
   2   1.0000     -31.234865      -849.9439
   3   1.0000     -26.859830      -730.8931
   4   1.0000     -26.852703      -730.6992
   5   1.0000     -26.852703      -730.6992
   6   1.0000      -8.526060      -232.0059
   7   1.0000      -6.314685      -171.8313
   8   1.0000      -6.305040      -171.5689
   9   1.0000      -6.305040      -171.5689
  10   1.0000      -3.812808      -103.7518
  11   1.0000      -2.445501       -66.5455
  12   1.0000      -2.445501       -66.5455
  13   1.0000      -2.422177       -65.9108
  14   1.0000      -0.779519       -21.2118
  15   1.0000      -0.428797       -11.6682
  16   1.0000      -0.370934       -10.0936
  17   1.0000      -0.299449        -8.1484
  18   1.0000      -0.299449        -8.1484
  19   0.0000      -0.063438        -1.7262
  20   0.0000       0.018092         0.4923
  21   0.0000       0.018092         0.4923
  22   0.0000       0.021857         0.5948
  23   0.0000       0.063703         1.7335

MULLIKEN ATOMIC CHARGES AND SPIN POPULATIONS
--------------------------------------------
   0 Fe:    0.567450    4.251420
   1 S :   -0.567450   -0.251420
Sum of atomic charges         :   -0.0000000

LOEWDIN ATOMIC CHARGES AND SPIN POPULATIONS
-------------------------------------------
   0 Fe:    0.257352    4.030713
   1 S :   -0.257352   -0.030713

  Mayer bond orders larger than 0.100000
B(  0-Fe,  1-S ) :   1.7286

MP2 TOTAL ENERGY:    -1661.335988813 Eh
Dispersion correction           -0.003440844
FINAL SINGLE POINT ENERGY     -1661.339429657470

DIPOLE MOMENT
-------------
                                X             Y             Z
Electronic contribution:     -0.00000      -0.00000       5.28764
Nuclear contribution   :      0.00000       0.00000      -2.60707
                        -----------------------------------------
Total Dipole Moment    :     -0.00000      -0.00000       2.68057
                        -----------------------------------------
Magnitude (a.u.)       :      2.68057
Magnitude (Debye)      :      6.81347

Rotational constants in cm-1:     0.000000     0.202836     0.202836
Rotational constants in MHz :     0.000000  6080.880231  6080.880231

                             ****ORCA TERMINATED NORMALLY****
TOTAL RUN TIME: 0 days 0 hours 0 minutes 6 seconds 41 msec
