                         Program Version 4.2.0 -  RELEASE  -
|  1> #
|  2> # TMD24_ZnS ri-DSD-BLYP/2013-D3BJ/Def2-TZVPPD
|  3> #
|  4> ! rijk ri-dsd-blyp/2013 d3bj def2-tzvppd def2/jk def2-tzvppd/c grid4 nofinalgrid
|  5>
|  6> *xyz 0 1
|  7> Zn       0.000000    0.000000    0.720000
|  8> S        0.000000    0.000000   -1.350000
|  9> *
| 10>
| 11> %maxcore 5000
| 12>
| 13> %pal
| 14> nprocs = 24
| 15> end
| 16>
| 17>
| 18>                          ****END OF INPUT****

CARTESIAN COORDINATES (ANGSTROEM)
---------------------------------
  Zn     0.000000    0.000000    0.720000
  S      0.000000    0.000000   -1.350000

 Total Charge           Charge          ....    0
 Multiplicity           Mult            ....    1
 Number of Electrons    NEL             ....   46
 Basis Dimension        Dim             ....  118

ORBITAL ENERGIES
----------------

  NO   OCC          E(Eh)            E(eV)
   0   2.0000    -351.214834     -9557.0415
   1   2.0000     -90.799369     -2470.7764
   2   2.0000     -43.663713     -1188.1500
   3   2.0000     -38.377134     -1044.2949
   4   2.0000     -38.377134     -1044.2949
   5   2.0000     -38.376143     -1044.2679
   6   2.0000      -8.542877      -232.4635
   7   2.0000      -6.327050      -172.1678
   8   2.0000      -6.322367      -172.0404
   9   2.0000      -6.322367      -172.0404
  10   2.0000      -5.422878      -147.5640
  11   2.0000      -3.695389      -100.5567
  12   2.0000      -3.692335      -100.4736
  13   2.0000      -3.692335      -100.4736
  14   2.0000      -0.806408       -21.9435
  15   2.0000      -0.758802       -20.6480
  16   2.0000      -0.758802       -20.6480
  17   2.0000      -0.754193       -20.5226
  18   2.0000      -0.754192       -20.5226
  19   2.0000      -0.721250       -19.6262
  20   2.0000      -0.360804        -9.8180
  21   2.0000      -0.291544        -7.9333
  22   2.0000      -0.291544        -7.9333
  23   0.0000      -0.095159        -2.5894
  24   0.0000       0.009440         0.2569
  25   0.0000       0.009440         0.2569
  26   0.0000       0.029038         0.7902
  27   0.0000       0.068169         1.8550

MULLIKEN ATOMIC CHARGES
-----------------------
   0 Zn:    0.388996
   1 S :   -0.388996
Sum of atomic charges:   -0.0000000

LOEWDIN ATOMIC CHARGES
----------------------
   0 Zn:    0.404605
   1 S :   -0.404605

  Mayer bond orders larger than 0.100000
B(  0-Zn,  1-S ) :   1.6848

MP2 TOTAL ENERGY:    -2176.990766184 Eh
Dispersion correction           -0.003313824
FINAL SINGLE POINT ENERGY     -2176.994080008189

DIPOLE MOMENT
-------------
                                X             Y             Z
Electronic contribution:     -0.00000       0.00000       5.97791
Nuclear contribution   :      0.00000       0.00000      -3.38342
                        -----------------------------------------
Total Dipole Moment    :     -0.00000       0.00000       2.59448
                        -----------------------------------------
Magnitude (a.u.)       :      2.59448
Magnitude (Debye)      :      6.59465

Rotational constants in cm-1:     0.000000     0.182888     0.182888
Rotational constants in MHz :     0.000000  5482.842292  5482.842292

                             ****ORCA TERMINATED NORMALLY****
TOTAL RUN TIME: 0 days 0 hours 0 minutes 4 seconds 648 msec
