                         Program Version 4.2.0 -  RELEASE  -
|  1> #
|  2> # TMD22_CoF ri-DSD-BLYP/2013-D3BJ/Def2-TZVPPD
|  3> #
|  4> ! rijk ri-dsd-blyp/2013 d3bj def2-tzvppd def2/jk def2-tzvppd/c grid4 nofinalgrid
|  5>
|  6> *xyz 0 3
|  7> Co       0.000000    0.000000    0.440000
|  8> F        0.000000    0.000000   -1.320000
|  9> *
| 10>
| 11> %maxcore 5000
| 12>
| 13> %pal
| 14> nprocs = 28
| 15> end
| 16>
| 17>
| 18>                          ****END OF INPUT****

CARTESIAN COORDINATES (ANGSTROEM)
---------------------------------
  Co     0.000000    0.000000    0.440000
  F      0.000000    0.000000   -1.320000

 Total Charge           Charge          ....    0
 Multiplicity           Mult            ....    3
 Number of Electrons    NEL             ....   36
 Basis Dimension        Dim             ....  107

ORBITAL ENERGIES
----------------
                 SPIN UP ORBITALS
  NO   OCC          E(Eh)            E(eV)
   0   1.0000    -281.129374     -7649.9192
   1   1.0000     -34.225042      -931.3107
   2   1.0000     -29.630796      -806.2950
   3   1.0000     -29.624853      -806.1332
   4   1.0000     -29.595368      -805.3309
   5   1.0000     -25.629403      -697.4115
   6   1.0000      -4.396752      -119.6417
   7   1.0000      -3.000612       -81.6508
   8   1.0000      -2.994219       -81.4768
   9   1.0000      -2.927357       -79.6574
  10   1.0000      -1.338266       -36.4161
  11   1.0000      -0.671586       -18.2748
  12   1.0000      -0.669839       -18.2272
  13   1.0000      -0.630429       -17.1548
  14   1.0000      -0.601528       -16.3684
  15   1.0000      -0.590238       -16.0612
  16   1.0000      -0.485373       -13.2077
  17   1.0000      -0.483813       -13.1652
  18   1.0000      -0.474093       -12.9007
  19   0.0000      -0.056771        -1.5448
  20   0.0000       0.027063         0.7364
  21   0.0000       0.029414         0.8004
  22   0.0000       0.058997         1.6054
  23   0.0000       0.114794         3.1237

                 SPIN DOWN ORBITALS
  NO   OCC          E(Eh)            E(eV)
   0   1.0000    -281.129180     -7649.9139
   1   1.0000     -34.139035      -928.9704
   2   1.0000     -29.538052      -803.7713
   3   1.0000     -29.534190      -803.6662
   4   1.0000     -29.532690      -803.6253
   5   1.0000     -25.627452      -697.3584
   6   1.0000      -4.175552      -113.6226
   7   1.0000      -2.732866       -74.3651
   8   1.0000      -2.700039       -73.4718
   9   1.0000      -2.699995       -73.4706
  10   1.0000      -1.332316       -36.2542
  11   1.0000      -0.535417       -14.5694
  12   1.0000      -0.529966       -14.4211
  13   1.0000      -0.500836       -13.6284
  14   1.0000      -0.486246       -13.2314
  15   1.0000      -0.444599       -12.0981
  16   1.0000      -0.266264        -7.2454
  17   0.0000      -0.000726        -0.0197
  18   0.0000       0.011816         0.3215
  19   0.0000       0.018045         0.4910
  20   0.0000       0.073595         2.0026
  21   0.0000       0.080045         2.1781

MULLIKEN ATOMIC CHARGES AND SPIN POPULATIONS
--------------------------------------------
   0 Co:    0.722707    1.972547
   1 F :   -0.722707    0.027453
Sum of atomic charges         :   -0.0000000

LOEWDIN ATOMIC CHARGES AND SPIN POPULATIONS
-------------------------------------------
   0 Co:    0.663021    2.076230
   1 F :   -0.663021   -0.076230

  Mayer bond orders larger than 0.100000
B(  0-Co,  1-F ) :   0.5308

MP2 TOTAL ENERGY:    -1482.215989783 Eh
Dispersion correction           -0.000728106
FINAL SINGLE POINT ENERGY     -1482.216717888808

DIPOLE MOMENT
-------------
                                X             Y             Z
Electronic contribution:     -0.00000      -0.00000       2.05275
Nuclear contribution   :      0.00000       0.00000      -0.74365
                        -----------------------------------------
Total Dipole Moment    :     -0.00000      -0.00000       1.30910
                        -----------------------------------------
Magnitude (a.u.)       :      1.30910
Magnitude (Debye)      :      3.32747

Rotational constants in cm-1:     0.000000     0.378809     0.378809
Rotational constants in MHz :     0.000000 11356.420741 11356.420741

                             ****ORCA TERMINATED NORMALLY****
TOTAL RUN TIME: 0 days 0 hours 0 minutes 44 seconds 285 msec
