                         Program Version 4.2.0 -  RELEASE  -
|  1> #
|  2> # MOR03_c2h4 wB97M-V/Def2-TZVPPD
|  3> #
|  4> ! wb97m-v def2-tzvppd def2/jk grid4 nofinalgrid
|  5>
|  6> *xyz 0 1
|  7> C        0.000000    0.665348   -0.000001
|  8> C        0.000000   -0.665348   -0.000001
|  9> H       -0.924311    1.237390    0.000003
| 10> H        0.924311    1.237390    0.000003
| 11> H        0.924311   -1.237390    0.000003
| 12> H       -0.924311   -1.237390    0.000003
| 13> *
| 14>
| 15> %maxcore 5000
| 16>
| 17> %pal
| 18> nprocs = 24
| 19> end
| 20>
| 21>
| 22>                          ****END OF INPUT****

CARTESIAN COORDINATES (ANGSTROEM)
---------------------------------
  C      0.000000    0.665348   -0.000001
  C      0.000000   -0.665348   -0.000001
  H     -0.924311    1.237390    0.000003
  H      0.924311    1.237390    0.000003
  H      0.924311   -1.237390    0.000003
  H     -0.924311   -1.237390    0.000003

 Total Charge           Charge          ....    0
 Multiplicity           Mult            ....    1
 Number of Electrons    NEL             ....   16
 Basis Dimension        Dim             ....  142

ORBITAL ENERGIES
----------------

  NO   OCC          E(Eh)            E(eV)
   0   2.0000     -10.347322      -281.5649
   1   2.0000     -10.346483      -281.5421
   2   2.0000      -0.886493       -24.1227
   3   2.0000      -0.695815       -18.9341
   4   2.0000      -0.578962       -15.7544
   5   2.0000      -0.527575       -14.3561
   6   2.0000      -0.455918       -12.4062
   7   2.0000      -0.376999       -10.2587
   8   0.0000       0.050181         1.3655
   9   0.0000       0.061727         1.6797
  10   0.0000       0.073358         1.9962
  11   0.0000       0.102275         2.7830
  12   0.0000       0.138787         3.7766

MULLIKEN ATOMIC CHARGES
-----------------------
   0 C :   -0.337864
   1 C :   -0.337825
   2 H :    0.168921
   3 H :    0.168924
   4 H :    0.168923
   5 H :    0.168920
Sum of atomic charges:    0.0000000

LOEWDIN ATOMIC CHARGES
----------------------
   0 C :    0.098911
   1 C :    0.098911
   2 H :   -0.049456
   3 H :   -0.049456
   4 H :   -0.049456
   5 H :   -0.049456

  Mayer bond orders larger than 0.100000
B(  0-C ,  1-C ) :   1.6786 B(  0-C ,  2-H ) :   0.9967 B(  0-C ,  3-H ) :   0.9966
B(  1-C ,  4-H ) :   0.9966 B(  1-C ,  5-H ) :   0.9966

FINAL SINGLE POINT ENERGY       -78.568077361469

DIPOLE MOMENT
-------------
                                X             Y             Z
Electronic contribution:      0.00000       0.00000      -0.00001
Nuclear contribution   :      0.00000       0.00000       0.00001
                        -----------------------------------------
Total Dipole Moment    :      0.00000       0.00000       0.00000
                        -----------------------------------------
Magnitude (a.u.)       :      0.00000
Magnitude (Debye)      :      0.00001

Rotational constants in cm-1:     4.893731     1.002967     0.832372
Rotational constants in MHz : 146710.378489 30068.182911 24953.899728

                             ****ORCA TERMINATED NORMALLY****
TOTAL RUN TIME: 0 days 0 hours 0 minutes 4 seconds 306 msec
