                         Program Version 4.2.0 -  RELEASE  -
|  1> #
|  2> # MOR09_ed07 wB97M-V/Def2-TZVPPD
|  3> #
|  4> ! wb97m-v def2-tzvppd def2/jk grid4 nofinalgrid
|  5>
|  6> *xyz 0 1
|  7> W        0.102077    0.091078   -0.092267
|  8> C        0.117393   -1.847063   -0.698289
|  9> O        0.106421   -2.944423   -1.101491
| 10> C        0.053830    0.623127   -1.953542
| 11> O        0.062184    0.954188   -3.084324
| 12> C       -0.079789    2.065684    0.368043
| 13> O       -0.241835    3.206144    0.563164
| 14> P       -2.374272   -0.093775    0.152024
| 15> C       -2.924700   -0.636961    1.860300
| 16> H       -4.020662   -0.654132    1.869520
| 17> C       -3.301587    1.526034   -0.042070
| 18> H       -2.720709    2.174283    0.626552
| 19> C       -3.158465   -1.412689   -0.926528
| 20> H       -2.602719   -2.298136   -0.589541
| 21> C        3.533012   -1.160075   -0.926747
| 22> P        2.541683   -0.047968    0.198665
| 23> H        3.436930   -0.493420    2.480788
| 24> H        3.117150   -2.146572   -0.686664
| 25> C        3.597094    1.476716    0.423185
| 26> H        4.630625    1.133957    0.560412
| 27> C       -3.162167    2.103519   -1.458162
| 28> H       -3.455722    3.159421   -1.453162
| 29> H       -3.815975    1.580772   -2.162650
| 30> H       -2.136423    2.033109   -1.825887
| 31> C       -4.764402    1.570333    0.422322
| 32> H       -5.415801    0.983387   -0.229568
| 33> H       -5.116762    2.608723    0.390691
| 34> H       -4.893747    1.210688    1.447022
| 35> C       -4.655036   -1.682881   -0.716884
| 36> H       -4.925909   -1.790522    0.337405
| 37> H       -4.929224   -2.613829   -1.227923
| 38> H       -5.265149   -0.883893   -1.147063
| 39> C       -2.846467   -1.236186   -2.419424
| 40> H       -3.119249   -2.151958   -2.956758
| 41> H       -1.787229   -1.039228   -2.589757
| 42> H       -3.419310   -0.412085   -2.852792
| 43> C       -2.418211   -2.050160    2.179041
| 44> H       -2.879973   -2.804800    1.536232
| 45> H       -2.649558   -2.306479    3.219697
| 46> H       -1.332968   -2.120913    2.045449
| 47> C       -2.447309    0.375917    2.910548
| 48> H       -1.357998    0.484909    2.881372
| 49> H       -2.729985    0.039964    3.915237
| 50> H       -2.881675    1.366975    2.750689
| 51> C        5.039293   -1.175311   -0.637409
| 52> H        5.257150   -1.324613    0.425881
| 53> H        5.510398   -0.237807   -0.951034
| 54> H        5.518847   -1.987312   -1.196567
| 55> C        3.236493   -0.904929   -2.411567
| 56> H        3.640990    0.053418   -2.749243
| 57> C        1.267139   -0.464900    2.531536
| 58> H        2.161630   -0.902783   -2.603826
| 59> H        3.697388   -1.694627   -3.016368
| 60> C        2.697601   -2.411104    1.824913
| 61> H        0.411078   -0.840608    1.910182
| 62> H        1.101298   -0.955345    3.499474
| 63> H        1.182937    0.613220    2.672323
| 64> C        2.601288   -0.882352    1.885247
| 65> H        2.586441   -2.826896    2.833616
| 66> H        3.659680   -2.747270    1.429848
| 67> H        1.903309   -2.831808    1.199333
| 68> C        3.181998    2.276906    1.664687
| 69> H        2.135318    2.587016    1.600131
| 70> H        3.793597    3.184158    1.733044
| 71> H        3.324478    1.710719    2.590306
| 72> C        3.508784    2.354763   -0.833649
| 73> H        2.465553    2.610163   -1.046808
| 74> H        3.919372    1.854332   -1.714343
| 75> H        4.068793    3.284623   -0.679973
| 76> *
| 77>
| 78> %maxcore 5000
| 79>
| 80> %pal
| 81> nprocs = 24
| 82> end
| 83>
| 84>
| 85>                          ****END OF INPUT****

CARTESIAN COORDINATES (ANGSTROEM)
---------------------------------
  W      0.102077    0.091078   -0.092267
  C      0.117393   -1.847063   -0.698289
  O      0.106421   -2.944423   -1.101491
  C      0.053830    0.623127   -1.953542
  O      0.062184    0.954188   -3.084324
  C     -0.079789    2.065684    0.368043
  O     -0.241835    3.206144    0.563164
  P     -2.374272   -0.093775    0.152024
  C     -2.924700   -0.636961    1.860300
  H     -4.020662   -0.654132    1.869520
  C     -3.301587    1.526034   -0.042070
  H     -2.720709    2.174283    0.626552
  C     -3.158465   -1.412689   -0.926528
  H     -2.602719   -2.298136   -0.589541
  C      3.533012   -1.160075   -0.926747
  P      2.541683   -0.047968    0.198665
  H      3.436930   -0.493420    2.480788
  H      3.117150   -2.146572   -0.686664
  C      3.597094    1.476716    0.423185
  H      4.630625    1.133957    0.560412
  C     -3.162167    2.103519   -1.458162
  H     -3.455722    3.159421   -1.453162
  H     -3.815975    1.580772   -2.162650
  H     -2.136423    2.033109   -1.825887
  C     -4.764402    1.570333    0.422322
  H     -5.415801    0.983387   -0.229568
  H     -5.116762    2.608723    0.390691
  H     -4.893747    1.210688    1.447022
  C     -4.655036   -1.682881   -0.716884
  H     -4.925909   -1.790522    0.337405
  H     -4.929224   -2.613829   -1.227923
  H     -5.265149   -0.883893   -1.147063
  C     -2.846467   -1.236186   -2.419424
  H     -3.119249   -2.151958   -2.956758
  H     -1.787229   -1.039228   -2.589757
  H     -3.419310   -0.412085   -2.852792
  C     -2.418211   -2.050160    2.179041
  H     -2.879973   -2.804800    1.536232
  H     -2.649558   -2.306479    3.219697
  H     -1.332968   -2.120913    2.045449
  C     -2.447309    0.375917    2.910548
  H     -1.357998    0.484909    2.881372
  H     -2.729985    0.039964    3.915237
  H     -2.881675    1.366975    2.750689
  C      5.039293   -1.175311   -0.637409
  H      5.257150   -1.324613    0.425881
  H      5.510398   -0.237807   -0.951034
  H      5.518847   -1.987312   -1.196567
  C      3.236493   -0.904929   -2.411567
  H      3.640990    0.053418   -2.749243
  C      1.267139   -0.464900    2.531536
  H      2.161630   -0.902783   -2.603826
  H      3.697388   -1.694627   -3.016368
  C      2.697601   -2.411104    1.824913
  H      0.411078   -0.840608    1.910182
  H      1.101298   -0.955345    3.499474
  H      1.182937    0.613220    2.672323
  C      2.601288   -0.882352    1.885247
  H      2.586441   -2.826896    2.833616
  H      3.659680   -2.747270    1.429848
  H      1.903309   -2.831808    1.199333
  C      3.181998    2.276906    1.664687
  H      2.135318    2.587016    1.600131
  H      3.793597    3.184158    1.733044
  H      3.324478    1.710719    2.590306
  C      3.508784    2.354763   -0.833649
  H      2.465553    2.610163   -1.046808
  H      3.919372    1.854332   -1.714343
  H      4.068793    3.284623   -0.679973

 Total Charge           Charge          ....    0
 Multiplicity           Mult            ....    1
 Number of Electrons    NEL             ....  236
 Basis Dimension        Dim             .... 1766

ORBITAL ENERGIES
----------------

  NO   OCC          E(Eh)            E(eV)
   0   2.0000     -77.385926     -2105.7781
   1   2.0000     -77.383946     -2105.7242
   2   2.0000     -19.381029      -527.3846
   3   2.0000     -19.379824      -527.3518
   4   2.0000     -19.338398      -526.2246
   5   2.0000     -10.436958      -284.0041
   6   2.0000     -10.436777      -283.9991
   7   2.0000     -10.406054      -283.1631
   8   2.0000     -10.372725      -282.2562
   9   2.0000     -10.372564      -282.2518
  10   2.0000     -10.362369      -281.9744
  11   2.0000     -10.361942      -281.9628
  12   2.0000     -10.360402      -281.9209
  13   2.0000     -10.356627      -281.8182
  14   2.0000     -10.356301      -281.8093
  15   2.0000     -10.351330      -281.6740
  16   2.0000     -10.347185      -281.5612
  17   2.0000     -10.345082      -281.5040
  18   2.0000     -10.344706      -281.4938
  19   2.0000     -10.343163      -281.4518
  20   2.0000     -10.340216      -281.3716
  21   2.0000     -10.339253      -281.3454
  22   2.0000     -10.337389      -281.2947
  23   2.0000     -10.332945      -281.1737
  24   2.0000     -10.329308      -281.0748
  25   2.0000     -10.327199      -281.0174
  26   2.0000      -6.733153      -183.2184
  27   2.0000      -6.730010      -183.1329
  28   2.0000      -4.845951      -131.8650
  29   2.0000      -4.845310      -131.8476
  30   2.0000      -4.842574      -131.7731
  31   2.0000      -4.842527      -131.7719
  32   2.0000      -4.842481      -131.7706
  33   2.0000      -4.839563      -131.6912
  34   2.0000      -3.018691       -82.1428
  35   2.0000      -1.668296       -45.3966
  36   2.0000      -1.666890       -45.3584
  37   2.0000      -1.656831       -45.0847
  38   2.0000      -1.225774       -33.3550
  39   2.0000      -1.224387       -33.3173
  40   2.0000      -1.183572       -32.2066
  41   2.0000      -0.953664       -25.9505
  42   2.0000      -0.943475       -25.6733
  43   2.0000      -0.922767       -25.1098
  44   2.0000      -0.912425       -24.8284
  45   2.0000      -0.910657       -24.7802
  46   2.0000      -0.906247       -24.6602
  47   2.0000      -0.830959       -22.6116
  48   2.0000      -0.816615       -22.2212
  49   2.0000      -0.813001       -22.1229
  50   2.0000      -0.810744       -22.0615
  51   2.0000      -0.809635       -22.0313
  52   2.0000      -0.799666       -21.7600
  53   2.0000      -0.779618       -21.2145
  54   2.0000      -0.773816       -21.0566
  55   2.0000      -0.716462       -19.4959
  56   2.0000      -0.705194       -19.1893
  57   2.0000      -0.702655       -19.1202
  58   2.0000      -0.702089       -19.1048
  59   2.0000      -0.678559       -18.4645
  60   2.0000      -0.652264       -17.7490
  61   2.0000      -0.645886       -17.5754
  62   2.0000      -0.635766       -17.3001
  63   2.0000      -0.627228       -17.0677
  64   2.0000      -0.600592       -16.3429
  65   2.0000      -0.591490       -16.0952
  66   2.0000      -0.586665       -15.9640
  67   2.0000      -0.580127       -15.7861
  68   2.0000      -0.579260       -15.7625
  69   2.0000      -0.563105       -15.3229
  70   2.0000      -0.562960       -15.3189
  71   2.0000      -0.562146       -15.2968
  72   2.0000      -0.551231       -14.9998
  73   2.0000      -0.546207       -14.8630
  74   2.0000      -0.544541       -14.8177
  75   2.0000      -0.540168       -14.6987
  76   2.0000      -0.536732       -14.6052
  77   2.0000      -0.534453       -14.5432
  78   2.0000      -0.533067       -14.5055
  79   2.0000      -0.530247       -14.4288
  80   2.0000      -0.520125       -14.1533
  81   2.0000      -0.517772       -14.0893
  82   2.0000      -0.514969       -14.0130
  83   2.0000      -0.513498       -13.9730
  84   2.0000      -0.512472       -13.9451
  85   2.0000      -0.509328       -13.8595
  86   2.0000      -0.507654       -13.8140
  87   2.0000      -0.504549       -13.7295
  88   2.0000      -0.502428       -13.6718
  89   2.0000      -0.499084       -13.5808
  90   2.0000      -0.496743       -13.5171
  91   2.0000      -0.495531       -13.4841
  92   2.0000      -0.492017       -13.3885
  93   2.0000      -0.489627       -13.3234
  94   2.0000      -0.488585       -13.2951
  95   2.0000      -0.473973       -12.8975
  96   2.0000      -0.470106       -12.7922
  97   2.0000      -0.467602       -12.7241
  98   2.0000      -0.464444       -12.6382
  99   2.0000      -0.456953       -12.4343
 100   2.0000      -0.455347       -12.3906
 101   2.0000      -0.454499       -12.3676
 102   2.0000      -0.449486       -12.2311
 103   2.0000      -0.445296       -12.1171
 104   2.0000      -0.444503       -12.0955
 105   2.0000      -0.440632       -11.9902
 106   2.0000      -0.439778       -11.9670
 107   2.0000      -0.438350       -11.9281
 108   2.0000      -0.436942       -11.8898
 109   2.0000      -0.399259       -10.8644
 110   2.0000      -0.393315       -10.7026
 111   2.0000      -0.391333       -10.6487
 112   2.0000      -0.390270       -10.6198
 113   2.0000      -0.380760       -10.3610
 114   2.0000      -0.339553        -9.2397
 115   2.0000      -0.271507        -7.3881
 116   2.0000      -0.263769        -7.1775
 117   2.0000      -0.254035        -6.9126
 118   0.0000       0.010876         0.2960
 119   0.0000       0.025894         0.7046
 120   0.0000       0.030728         0.8362
 121   0.0000       0.034144         0.9291
 122   0.0000       0.038476         1.0470

MULLIKEN ATOMIC CHARGES
-----------------------
   0 W :   -0.669753
   1 C :    0.581557
   2 O :   -0.549927
   3 C :    1.037704
   4 O :   -0.644531
   5 C :    0.612845
   6 O :   -0.563462
   7 P :    0.722379
   8 C :    0.212410
   9 H :    0.637856
  10 C :    0.502501
  11 H :    0.386979
  12 C :    0.570123
  13 H :    0.457084
  14 C :    0.871392
  15 P :    0.439367
  16 H :    0.838407
  17 H :    0.559050
  18 C :    0.384992
  19 H :    0.614140
  20 C :   -1.590929
  21 H :    0.462640
  22 H :    0.292907
  23 H :    0.209594
  24 C :   -1.571001
  25 H :    0.248104
  26 H :    0.457216
  27 H :    0.259606
  28 C :   -1.704074
  29 H :    0.283200
  30 H :    0.451902
  31 H :    0.303233
  32 C :   -1.468868
  33 H :    0.468317
  34 H :    0.196556
  35 H :    0.257326
  36 C :   -1.672369
  37 H :    0.268696
  38 H :    0.490479
  39 H :    0.233086
  40 C :   -1.682932
  41 H :    0.253776
  42 H :    0.492490
  43 H :    0.267400
  44 C :   -1.766755
  45 H :    0.329928
  46 H :    0.312755
  47 H :    0.466250
  48 C :   -1.297533
  49 H :    0.237504
  50 C :   -1.677384
  51 H :    0.214851
  52 H :    0.428161
  53 C :   -1.757315
  54 H :    0.095947
  55 H :    0.557569
  56 H :    0.235010
  57 C :    0.253918
  58 H :    0.442755
  59 H :    0.318224
  60 H :    0.347074
  61 C :   -1.418378
  62 H :    0.253607
  63 H :    0.436759
  64 H :    0.273383
  65 C :   -1.437695
  66 H :    0.253098
  67 H :    0.227297
  68 H :    0.463504
Sum of atomic charges:   -0.0000000

LOEWDIN ATOMIC CHARGES
----------------------
   0 W :    0.271513
   1 C :   -0.268746
   2 O :    0.058577
   3 C :   -0.381279
   4 O :    0.017658
   5 C :   -0.261246
   6 O :    0.056696
   7 P :    1.062599
   8 C :   -0.379140
   9 H :   -0.028284
  10 C :   -0.359292
  11 H :   -0.036842
  12 C :   -0.358428
  13 H :   -0.032196
  14 C :   -0.363643
  15 P :    1.057512
  16 H :   -0.003509
  17 H :   -0.024945
  18 C :   -0.361425
  19 H :   -0.013047
  20 C :    0.124696
  21 H :   -0.001166
  22 H :   -0.019742
  23 H :   -0.040101
  24 C :    0.127253
  25 H :   -0.026388
  26 H :   -0.002117
  27 H :   -0.027248
  28 C :    0.125083
  29 H :   -0.024400
  30 H :   -0.002873
  31 H :   -0.022987
  32 C :    0.124085
  33 H :   -0.000548
  34 H :   -0.048508
  35 H :   -0.020749
  36 C :    0.118145
  37 H :   -0.018293
  38 H :   -0.004601
  39 H :   -0.034479
  40 C :    0.118629
  41 H :   -0.036703
  42 H :   -0.003918
  43 H :   -0.019351
  44 C :    0.113532
  45 H :   -0.018469
  46 H :   -0.014183
  47 H :   -0.003253
  48 C :    0.125119
  49 H :   -0.022162
  50 C :    0.069050
  51 H :   -0.040727
  52 H :   -0.002235
  53 C :    0.118070
  54 H :   -0.075209
  55 H :    0.012098
  56 H :   -0.032631
  57 C :   -0.344404
  58 H :   -0.002555
  59 H :   -0.019973
  60 H :   -0.021199
  61 C :    0.114857
  62 H :   -0.038143
  63 H :   -0.002287
  64 H :   -0.022723
  65 C :    0.124800
  66 H :   -0.018040
  67 H :   -0.030775
  68 H :   -0.004813

  Mayer bond orders larger than 0.100000
B(  0-W ,  1-C ) :   0.7065 B(  0-W ,  3-C ) :   1.5826 B(  0-W ,  5-C ) :   0.2948
B(  0-W ,  7-P ) :  -0.5098 B(  0-W , 10-C ) :   0.2047 B(  0-W , 12-C ) :   0.1634
B(  0-W , 15-P ) :   0.9189 B(  0-W , 16-H ) :   0.2402 B(  0-W , 17-H ) :   0.1025
B(  0-W , 18-C ) :   0.2497 B(  0-W , 19-H ) :  -0.1496 B(  0-W , 50-C ) :  -0.4236
B(  0-W , 54-H ) :   0.1342 B(  0-W , 57-C ) :  -0.1804 B(  1-C ,  2-O ) :   1.6442
B(  1-C ,  5-C ) :   0.6074 B(  1-C ,  7-P ) :   0.5559 B(  1-C , 15-P ) :   0.1773
B(  1-C , 50-C ) :   0.2607 B(  1-C , 54-H ) :  -0.1664 B(  3-C ,  4-O ) :   1.5605
B(  3-C ,  5-C ) :   0.2175 B(  3-C , 15-P ) :   0.1233 B(  3-C , 50-C ) :   0.1462
B(  5-C ,  6-O ) :   1.7390 B(  5-C ,  7-P ) :   0.4128 B(  5-C , 14-C ) :  -0.1430
B(  5-C , 15-P ) :   0.2481 B(  7-P ,  8-C ) :   0.9671 B(  7-P , 10-C ) :   0.5421
B(  7-P , 12-C ) :   0.5784 B(  7-P , 15-P ) :  -0.1209 B(  7-P , 36-C ) :  -0.2323
B(  7-P , 40-C ) :  -0.2351 B(  7-P , 50-C ) :   0.1173 B(  8-C ,  9-H ) :   0.5305
B(  8-C , 10-C ) :   0.3497 B(  8-C , 12-C ) :   0.3399 B(  8-C , 36-C ) :   0.2022
B(  8-C , 39-H ) :  -0.1634 B(  8-C , 40-C ) :   0.1757 B(  8-C , 41-H ) :  -0.1168
B(  8-C , 43-H ) :  -0.1167 B( 10-C , 11-H ) :   0.8820 B( 10-C , 12-C ) :   0.3364
B( 10-C , 20-C ) :   0.1635 B( 10-C , 22-H ) :  -0.1568 B( 10-C , 23-H ) :  -0.1189
B( 10-C , 24-C ) :   0.1542 B( 10-C , 25-H ) :  -0.1660 B( 10-C , 27-H ) :  -0.1425
B( 10-C , 40-C ) :   0.1587 B( 12-C , 13-H ) :   0.7758 B( 12-C , 29-H ) :  -0.1338
B( 12-C , 31-H ) :  -0.1716 B( 12-C , 32-C ) :   0.1965 B( 12-C , 34-H ) :  -0.1053
B( 12-C , 35-H ) :  -0.1380 B( 12-C , 36-C ) :   0.2041 B( 14-C , 15-P ) :   0.1214
B( 14-C , 17-H ) :   0.7176 B( 14-C , 18-C ) :   0.3482 B( 14-C , 45-H ) :  -0.1332
B( 14-C , 46-H ) :  -0.1510 B( 14-C , 47-H ) :  -0.1007 B( 14-C , 48-C ) :   0.2479
B( 14-C , 49-H ) :  -0.1436 B( 14-C , 57-C ) :   0.2383 B( 14-C , 61-C ) :   0.1427
B( 15-P , 16-H ) :  -0.2142 B( 15-P , 18-C ) :   0.7490 B( 15-P , 54-H ) :  -0.1697
B( 15-P , 57-C ) :   1.0159 B( 15-P , 65-C ) :   0.1478 B( 16-H , 57-C ) :   0.2586
B( 18-C , 19-H ) :   0.4819 B( 18-C , 57-C ) :   0.2799 B( 18-C , 61-C ) :   0.1306
B( 18-C , 62-H ) :  -0.1465 B( 18-C , 65-C ) :   0.3527 B( 18-C , 66-H ) :  -0.1388
B( 20-C , 21-H ) :   0.8417 B( 20-C , 22-H ) :   1.1151 B( 20-C , 23-H ) :   1.0097
B( 24-C , 25-H ) :   1.1037 B( 24-C , 26-H ) :   0.8504 B( 24-C , 27-H ) :   1.0517
B( 28-C , 29-H ) :   1.0341 B( 28-C , 30-H ) :   0.8638 B( 28-C , 31-H ) :   1.0892
B( 32-C , 33-H ) :   0.8339 B( 32-C , 34-H ) :   1.0061 B( 32-C , 35-H ) :   1.1221
B( 36-C , 37-H ) :   1.1310 B( 36-C , 38-H ) :   0.7898 B( 36-C , 39-H ) :   0.9464
B( 36-C , 50-C ) :   0.1132 B( 40-C , 41-H ) :   0.8756 B( 40-C , 42-H ) :   0.8276
B( 40-C , 43-H ) :   1.1238 B( 44-C , 45-H ) :   0.9770 B( 44-C , 46-H ) :   1.1335
B( 44-C , 47-H ) :   0.8390 B( 48-C , 49-H ) :   1.1236 B( 48-C , 51-H ) :   0.9982
B( 48-C , 52-H ) :   0.8794 B( 50-C , 54-H ) :   0.7912 B( 50-C , 55-H ) :   0.6087
B( 50-C , 56-H ) :   1.5153 B( 50-C , 57-C ) :   0.4562 B( 53-C , 58-H ) :   0.8452
B( 53-C , 59-H ) :   1.0903 B( 53-C , 60-H ) :   0.9706 B( 54-H , 56-H ) :  -0.1475
B( 56-H , 57-C ) :  -0.1002 B( 57-C , 59-H ) :  -0.1310 B( 57-C , 60-H ) :  -0.1424
B( 57-C , 61-C ) :   0.1367 B( 61-C , 62-H ) :   0.9965 B( 61-C , 63-H ) :   0.8679
B( 61-C , 64-H ) :   1.0694 B( 65-C , 66-H ) :   1.0983 B( 65-C , 67-H ) :   1.0050
B( 65-C , 68-H ) :   0.8208

FINAL SINGLE POINT ENERGY     -1800.957223614818

DIPOLE MOMENT
-------------
                                X             Y             Z
Electronic contribution:     17.79991      16.09590     -20.01074
Nuclear contribution   :    -17.42159     -16.73751      21.91193
                        -----------------------------------------
Total Dipole Moment    :      0.37832      -0.64160       1.90119
                        -----------------------------------------
Magnitude (a.u.)       :      2.04189
Magnitude (Debye)      :      5.19007

Rotational constants in cm-1:     0.007992     0.003859     0.003786
Rotational constants in MHz :   239.602072   115.683770   113.510152

                             ****ORCA TERMINATED NORMALLY****
TOTAL RUN TIME: 0 days 2 hours 34 minutes 49 seconds 323 msec
