                         Program Version 4.2.0 -  RELEASE  -
|  1> #
|  2> # MOR01_accl wB97M-V/Def2-TZVPPD
|  3> #
|  4> ! wb97m-v def2-tzvppd def2/jk grid4 nofinalgrid
|  5>
|  6> *xyz 0 1
|  7> C        1.306659   -1.017500   -0.000028
|  8> C        0.488515    0.240833   -0.000079
|  9> H        2.367301   -0.760167   -0.001300
| 10> H        1.052624   -1.613812   -0.881062
| 11> H        1.054555   -1.612076    0.882774
| 12> O        0.865971    1.367720    0.000018
| 13> Cl      -1.304312   -0.135041    0.000005
| 14> *
| 15>
| 16> %maxcore 5000
| 17>
| 18> %pal
| 19> nprocs = 24
| 20> end
| 21>
| 22>
| 23>                          ****END OF INPUT****

CARTESIAN COORDINATES (ANGSTROEM)
---------------------------------
  C      1.306659   -1.017500   -0.000028
  C      0.488515    0.240833   -0.000079
  H      2.367301   -0.760167   -0.001300
  H      1.052624   -1.613812   -0.881062
  H      1.054555   -1.612076    0.882774
  O      0.865971    1.367720    0.000018
  Cl    -1.304312   -0.135041    0.000005

 Total Charge           Charge          ....    0
 Multiplicity           Mult            ....    1
 Number of Electrons    NEL             ....   40
 Basis Dimension        Dim             ....  216

ORBITAL ENERGIES
----------------

  NO   OCC          E(Eh)            E(eV)
   0   2.0000    -101.880731     -2772.3156
   1   2.0000     -19.376480      -527.2608
   2   2.0000     -10.514918      -286.1255
   3   2.0000     -10.385683      -282.6088
   4   2.0000      -9.653600      -262.6878
   5   2.0000      -7.357197      -200.1995
   6   2.0000      -7.350850      -200.0268
   7   2.0000      -7.349908      -200.0012
   8   2.0000      -1.233087       -33.5540
   9   2.0000      -0.976726       -26.5781
  10   2.0000      -0.894119       -24.3302
  11   2.0000      -0.685072       -18.6417
  12   2.0000      -0.610824       -16.6214
  13   2.0000      -0.594799       -16.1853
  14   2.0000      -0.593555       -16.1514
  15   2.0000      -0.530717       -14.4415
  16   2.0000      -0.511030       -13.9058
  17   2.0000      -0.429513       -11.6877
  18   2.0000      -0.426718       -11.6116
  19   2.0000      -0.405281       -11.0283
  20   0.0000       0.026972         0.7340
  21   0.0000       0.034324         0.9340
  22   0.0000       0.048730         1.3260
  23   0.0000       0.056935         1.5493
  24   0.0000       0.067303         1.8314

MULLIKEN ATOMIC CHARGES
-----------------------
   0 C :   -0.690074
   1 C :    0.610839
   2 H :    0.233455
   3 H :    0.245819
   4 H :    0.245545
   5 O :   -0.418988
   6 Cl:   -0.226597
Sum of atomic charges:   -0.0000000

LOEWDIN ATOMIC CHARGES
----------------------
   0 C :    0.128558
   1 C :   -0.753884
   2 H :    0.000381
   3 H :   -0.003968
   4 H :   -0.003876
   5 O :    0.066506
   6 Cl:    0.566284

  Mayer bond orders larger than 0.100000
B(  0-C ,  1-C ) :   0.7902 B(  0-C ,  2-H ) :   0.9590 B(  0-C ,  3-H ) :   0.9615
B(  0-C ,  4-H ) :   0.9615 B(  1-C ,  5-O ) :   1.8726 B(  1-C ,  6-Cl) :   0.8805
B(  5-O ,  6-Cl) :   0.1075

FINAL SINGLE POINT ENERGY      -613.447830102649

DIPOLE MOMENT
-------------
                                X             Y             Z
Electronic contribution:     -5.50515       2.63405      -0.00034
Nuclear contribution   :      6.08095      -3.60915       0.00039
                        -----------------------------------------
Total Dipole Moment    :      0.57580      -0.97509       0.00005
                        -----------------------------------------
Magnitude (a.u.)       :      1.13241
Magnitude (Debye)      :      2.87836

Rotational constants in cm-1:     0.334975     0.160198     0.110601
Rotational constants in MHz : 10042.310181  4802.622935  3315.727154

                             ****ORCA TERMINATED NORMALLY****
TOTAL RUN TIME: 0 days 0 hours 0 minutes 10 seconds 629 msec
