                         Program Version 4.2.0 -  RELEASE  -
|  1> #
|  2> # MOR04_c2h6 wB97M-V/Def2-TZVPPD
|  3> #
|  4> ! wb97m-v def2-tzvppd def2/jk grid4 nofinalgrid
|  5>
|  6> *xyz 0 1
|  7> C       -0.765850   -0.000004    0.000000
|  8> C        0.765850    0.000004    0.000000
|  9> H       -1.162381   -1.020936   -0.022850
| 10> H       -1.162409    0.530251   -0.872720
| 11> H       -1.162411    0.490675    0.895568
| 12> H        1.162410   -0.530239    0.872727
| 13> H        1.162411   -0.490686   -0.895561
| 14> H        1.162381    1.020936    0.022836
| 15> *
| 16>
| 17> %maxcore 5000
| 18>
| 19> %pal
| 20> nprocs = 24
| 21> end
| 22>
| 23>
| 24>                          ****END OF INPUT****

CARTESIAN COORDINATES (ANGSTROEM)
---------------------------------
  C     -0.765850   -0.000004    0.000000
  C      0.765850    0.000004    0.000000
  H     -1.162381   -1.020936   -0.022850
  H     -1.162409    0.530251   -0.872720
  H     -1.162411    0.490675    0.895568
  H      1.162410   -0.530239    0.872727
  H      1.162411   -0.490686   -0.895561
  H      1.162381    1.020936    0.022836

 Total Charge           Charge          ....    0
 Multiplicity           Mult            ....    1
 Number of Electrons    NEL             ....   18
 Basis Dimension        Dim             ....  176

ORBITAL ENERGIES
----------------

  NO   OCC          E(Eh)            E(eV)
   0   2.0000     -10.332275      -281.1555
   1   2.0000     -10.332116      -281.1512
   2   2.0000      -0.874220       -23.7887
   3   2.0000      -0.732002       -19.9188
   4   2.0000      -0.540773       -14.7152
   5   2.0000      -0.540770       -14.7151
   6   2.0000      -0.468157       -12.7392
   7   2.0000      -0.442171       -12.0321
   8   2.0000      -0.442168       -12.0320
   9   0.0000       0.045133         1.2281
  10   0.0000       0.065051         1.7701
  11   0.0000       0.110814         3.0154
  12   0.0000       0.110837         3.0160
  13   0.0000       0.134039         3.6474

MULLIKEN ATOMIC CHARGES
-----------------------
   0 C :   -0.665565
   1 C :   -0.665560
   2 H :    0.221759
   3 H :    0.221845
   4 H :    0.221955
   5 H :    0.221858
   6 H :    0.221957
   7 H :    0.221752
Sum of atomic charges:    0.0000000

LOEWDIN ATOMIC CHARGES
----------------------
   0 C :    0.075493
   1 C :    0.075493
   2 H :   -0.025166
   3 H :   -0.025164
   4 H :   -0.025164
   5 H :   -0.025163
   6 H :   -0.025165
   7 H :   -0.025166

  Mayer bond orders larger than 0.100000
B(  0-C ,  1-C ) :   0.5420 B(  0-C ,  2-H ) :   0.9999 B(  0-C ,  3-H ) :   1.0000
B(  0-C ,  4-H ) :   0.9999 B(  1-C ,  5-H ) :   1.0000 B(  1-C ,  6-H ) :   0.9999
B(  1-C ,  7-H ) :   0.9999

FINAL SINGLE POINT ENERGY       -79.794585738140

DIPOLE MOMENT
-------------
                                X             Y             Z
Electronic contribution:     -0.00000      -0.00000      -0.00000
Nuclear contribution   :      0.00000       0.00000      -0.00000
                        -----------------------------------------
Total Dipole Moment    :      0.00000       0.00000      -0.00000
                        -----------------------------------------
Magnitude (a.u.)       :      0.00000
Magnitude (Debye)      :      0.00000

Rotational constants in cm-1:     2.672873     0.663298     0.663297
Rotational constants in MHz : 80130.723455 19885.185427 19885.132514

                             ****ORCA TERMINATED NORMALLY****
TOTAL RUN TIME: 0 days 0 hours 0 minutes 5 seconds 614 msec
