                         Program Version 4.2.0 -  RELEASE  -
|  1> #
|  2> # MOR08_ed05 wB97M-V/Def2-TZVPPD
|  3> #
|  4> ! wb97m-v def2-tzvppd def2/jk grid4 nofinalgrid
|  5>
|  6> *xyz 0 1
|  7> Mn      -0.000015    0.000034   -0.156112
|  8> O       -2.966556    0.069032   -0.568565
|  9> C       -1.835048    0.042703   -0.376221
| 10> C        0.000106   -0.000266    1.691489
| 11> O        0.000196   -0.000501    2.842648
| 12> C        1.835004   -0.042558   -0.376374
| 13> O        2.966501   -0.068795   -0.568793
| 14> C        0.042608    1.834986   -0.376689
| 15> O        0.068875    2.966413   -0.569532
| 16> C       -0.042655   -1.834886   -0.377054
| 17> O       -0.068962   -2.966280   -0.570073
| 18> H       -0.000145    0.000318   -1.733571
| 19> *
| 20>
| 21> %maxcore 5000
| 22>
| 23> %pal
| 24> nprocs = 24
| 25> end
| 26>
| 27>
| 28>                          ****END OF INPUT****

CARTESIAN COORDINATES (ANGSTROEM)
---------------------------------
  Mn    -0.000015    0.000034   -0.156112
  O     -2.966556    0.069032   -0.568565
  C     -1.835048    0.042703   -0.376221
  C      0.000106   -0.000266    1.691489
  O      0.000196   -0.000501    2.842648
  C      1.835004   -0.042558   -0.376374
  O      2.966501   -0.068795   -0.568793
  C      0.042608    1.834986   -0.376689
  O      0.068875    2.966413   -0.569532
  C     -0.042655   -1.834886   -0.377054
  O     -0.068962   -2.966280   -0.570073
  H     -0.000145    0.000318   -1.733571

 Total Charge           Charge          ....    0
 Multiplicity           Mult            ....    1
 Number of Electrons    NEL             ....   96
 Basis Dimension        Dim             ....  469

ORBITAL ENERGIES
----------------

  NO   OCC          E(Eh)            E(eV)
   0   2.0000    -235.992708     -6421.6881
   1   2.0000     -27.593260      -750.8508
   2   2.0000     -23.585416      -641.7918
   3   2.0000     -23.585414      -641.7918
   4   2.0000     -23.580776      -641.6655
   5   2.0000     -19.438784      -528.9562
   6   2.0000     -19.438783      -528.9562
   7   2.0000     -19.438773      -528.9559
   8   2.0000     -19.438770      -528.9558
   9   2.0000     -19.431892      -528.7687
  10   2.0000     -10.496700      -285.6297
  11   2.0000     -10.496699      -285.6297
  12   2.0000     -10.496692      -285.6295
  13   2.0000     -10.496691      -285.6295
  14   2.0000     -10.489421      -285.4317
  15   2.0000      -3.332704       -90.6875
  16   2.0000      -2.175482       -59.1979
  17   2.0000      -2.175479       -59.1978
  18   2.0000      -2.164418       -58.8968
  19   2.0000      -1.290924       -35.1278
  20   2.0000      -1.290114       -35.1058
  21   2.0000      -1.290102       -35.1055
  22   2.0000      -1.289461       -35.0880
  23   2.0000      -1.282119       -34.8882
  24   2.0000      -0.752534       -20.4775
  25   2.0000      -0.705382       -19.1944
  26   2.0000      -0.705373       -19.1942
  27   2.0000      -0.699451       -19.0330
  28   2.0000      -0.699338       -19.0300
  29   2.0000      -0.635111       -17.2823
  30   2.0000      -0.614996       -16.7349
  31   2.0000      -0.602680       -16.3998
  32   2.0000      -0.602678       -16.3997
  33   2.0000      -0.601877       -16.3779
  34   2.0000      -0.600504       -16.3405
  35   2.0000      -0.600492       -16.3402
  36   2.0000      -0.585911       -15.9434
  37   2.0000      -0.579585       -15.7713
  38   2.0000      -0.579582       -15.7712
  39   2.0000      -0.577332       -15.7100
  40   2.0000      -0.570813       -15.5326
  41   2.0000      -0.561746       -15.2859
  42   2.0000      -0.537705       -14.6317
  43   2.0000      -0.537696       -14.6314
  44   2.0000      -0.408554       -11.1173
  45   2.0000      -0.381972       -10.3940
  46   2.0000      -0.371511       -10.1093
  47   2.0000      -0.371497       -10.1089
  48   0.0000       0.018435         0.5016
  49   0.0000       0.031692         0.8624
  50   0.0000       0.031693         0.8624
  51   0.0000       0.035747         0.9727
  52   0.0000       0.037546         1.0217

MULLIKEN ATOMIC CHARGES
-----------------------
   0 Mn:    0.157200
   1 O :   -0.332294
   2 C :    0.353777
   3 C :    0.072639
   4 O :   -0.360426
   5 C :    0.353166
   6 O :   -0.332291
   7 C :    0.352851
   8 O :   -0.332355
   9 C :    0.352115
  10 O :   -0.332248
  11 H :    0.047867
Sum of atomic charges:   -0.0000000

LOEWDIN ATOMIC CHARGES
----------------------
   0 Mn:   -0.519265
   1 O :    0.170568
   2 C :   -0.087396
   3 C :   -0.061350
   4 O :    0.154352
   5 C :   -0.087392
   6 O :    0.170570
   7 C :   -0.087425
   8 O :    0.170548
   9 C :   -0.087411
  10 O :    0.170552
  11 H :    0.093651

  Mayer bond orders larger than 0.100000
B(  0-Mn,  2-C ) :   0.7716 B(  0-Mn,  3-C ) :   0.8302 B(  0-Mn,  5-C ) :   0.7707
B(  0-Mn,  7-C ) :   0.7715 B(  0-Mn,  9-C ) :   0.7711 B(  0-Mn, 11-H ) :   0.8437
B(  1-O ,  2-C ) :   2.0771 B(  3-C ,  4-O ) :   2.0195 B(  5-C ,  6-O ) :   2.0769
B(  7-C ,  8-O ) :   2.0770 B(  9-C , 10-O ) :   2.0771

FINAL SINGLE POINT ENERGY     -1718.361396898748

DIPOLE MOMENT
-------------
                                X             Y             Z
Electronic contribution:      0.00008      -0.00018       1.01517
Nuclear contribution   :     -0.00006       0.00014      -0.87929
                        -----------------------------------------
Total Dipole Moment    :      0.00002      -0.00004       0.13588
                        -----------------------------------------
Magnitude (a.u.)       :      0.13588
Magnitude (Debye)      :      0.34538

Rotational constants in cm-1:     0.030200     0.030198     0.023242
Rotational constants in MHz :   905.379927   905.310991   696.775514

                             ****ORCA TERMINATED NORMALLY****
TOTAL RUN TIME: 0 days 0 hours 2 minutes 11 seconds 358 msec
