                         Program Version 4.2.0 -  RELEASE  -
|  1> #
|  2> # MOR02_bz wB97M-V/Def2-TZVPPD
|  3> #
|  4> ! wb97m-v def2-tzvppd def2/jk grid4 nofinalgrid
|  5>
|  6> *xyz 0 1
|  7> C        1.391947    0.103893   -0.000005
|  8> C        0.785946   -1.153510   -0.000002
|  9> C       -0.605997   -1.257403   -0.000005
| 10> C       -1.391947   -0.103892   -0.000002
| 11> C       -0.785947    1.153509   -0.000006
| 12> C        0.605998    1.257403   -0.000002
| 13> H        2.475503    0.184769    0.000018
| 14> H        1.397775   -2.051448    0.000027
| 15> H       -1.077745   -2.236217    0.000018
| 16> H       -2.475502   -0.184774    0.000031
| 17> H       -1.397773    2.051449    0.000014
| 18> H        1.077742    2.236219    0.000031
| 19> *
| 20>
| 21> %maxcore 5000
| 22>
| 23> %pal
| 24> nprocs = 24
| 25> end
| 26>
| 27>
| 28>                          ****END OF INPUT****

CARTESIAN COORDINATES (ANGSTROEM)
---------------------------------
  C      1.391947    0.103893   -0.000005
  C      0.785946   -1.153510   -0.000002
  C     -0.605997   -1.257403   -0.000005
  C     -1.391947   -0.103892   -0.000002
  C     -0.785947    1.153509   -0.000006
  C      0.605998    1.257403   -0.000002
  H      2.475503    0.184769    0.000018
  H      1.397775   -2.051448    0.000027
  H     -1.077745   -2.236217    0.000018
  H     -2.475502   -0.184774    0.000031
  H     -1.397773    2.051449    0.000014
  H      1.077742    2.236219    0.000031

 Total Charge           Charge          ....    0
 Multiplicity           Mult            ....    1
 Number of Electrons    NEL             ....   42
 Basis Dimension        Dim             ....  324

ORBITAL ENERGIES
----------------

  NO   OCC          E(Eh)            E(eV)
   0   2.0000     -10.352759      -281.7129
   1   2.0000     -10.352541      -281.7070
   2   2.0000     -10.352540      -281.7069
   3   2.0000     -10.352025      -281.6929
   4   2.0000     -10.352023      -281.6929
   5   2.0000     -10.351788      -281.6865
   6   2.0000      -0.982543       -26.7364
   7   2.0000      -0.870543       -23.6887
   8   2.0000      -0.870542       -23.6886
   9   2.0000      -0.720001       -19.5922
  10   2.0000      -0.719999       -19.5922
  11   2.0000      -0.638019       -17.3614
  12   2.0000      -0.570028       -15.5112
  13   2.0000      -0.554805       -15.0970
  14   2.0000      -0.526719       -14.3328
  15   2.0000      -0.526718       -14.3327
  16   2.0000      -0.482448       -13.1281
  17   2.0000      -0.443907       -12.0793
  18   2.0000      -0.443904       -12.0792
  19   2.0000      -0.346829        -9.4377
  20   2.0000      -0.346827        -9.4376
  21   0.0000       0.041839         1.1385
  22   0.0000       0.056930         1.5491
  23   0.0000       0.057003         1.5511
  24   0.0000       0.060705         1.6519
  25   0.0000       0.060710         1.6520

MULLIKEN ATOMIC CHARGES
-----------------------
   0 C :   -0.154345
   1 C :   -0.151434
   2 C :   -0.149748
   3 C :   -0.154343
   4 C :   -0.150740
   5 C :   -0.149720
   6 H :    0.151603
   7 H :    0.152366
   8 H :    0.151186
   9 H :    0.151712
  10 H :    0.152437
  11 H :    0.151025
Sum of atomic charges:    0.0000000

LOEWDIN ATOMIC CHARGES
----------------------
   0 C :    0.001187
   1 C :    0.001202
   2 C :    0.001216
   3 C :    0.001186
   4 C :    0.001203
   5 C :    0.001217
   6 H :   -0.001198
   7 H :   -0.001198
   8 H :   -0.001210
   9 H :   -0.001198
  10 H :   -0.001198
  11 H :   -0.001210

  Mayer bond orders larger than 0.100000
B(  0-C ,  1-C ) :   1.1514 B(  0-C ,  5-C ) :   1.1498 B(  0-C ,  6-H ) :   1.0516
B(  1-C ,  2-C ) :   1.1490 B(  1-C ,  7-H ) :   1.0514 B(  2-C ,  3-C ) :   1.1495
B(  2-C ,  8-H ) :   1.0518 B(  3-C ,  4-C ) :   1.1514 B(  3-C ,  9-H ) :   1.0514
B(  4-C ,  5-C ) :   1.1484 B(  4-C , 10-H ) :   1.0513 B(  5-C , 11-H ) :   1.0521

FINAL SINGLE POINT ENERGY      -232.229126835612

DIPOLE MOMENT
-------------
                                X             Y             Z
Electronic contribution:     -0.00000       0.00000      -0.00010
Nuclear contribution   :      0.00000      -0.00000       0.00014
                        -----------------------------------------
Total Dipole Moment    :     -0.00000      -0.00000       0.00004
                        -----------------------------------------
Magnitude (a.u.)       :      0.00004
Magnitude (Debye)      :      0.00010

Rotational constants in cm-1:     0.189759     0.189757     0.094879
Rotational constants in MHz :  5688.823776  5688.770067  2844.398461

                             ****ORCA TERMINATED NORMALLY****
TOTAL RUN TIME: 0 days 0 hours 0 minutes 29 seconds 701 msec
