                         Program Version 4.2.0 -  RELEASE  -
|  1> #
|  2> # MOR05_co wB97M-V/Def2-TZVPPD
|  3> #
|  4> ! wb97m-v def2-tzvppd def2/jk grid4 nofinalgrid
|  5>
|  6> *xyz 0 1
|  7> O        0.000000    0.000000    0.486237
|  8> C        0.000000    0.000000   -0.648315
|  9> *
| 10>
| 11> %maxcore 5000
| 12>
| 13> %pal
| 14> nprocs = 24
| 15> end
| 16>
| 17>
| 18>                          ****END OF INPUT****

CARTESIAN COORDINATES (ANGSTROEM)
---------------------------------
  O      0.000000    0.000000    0.486237
  C      0.000000    0.000000   -0.648315

 Total Charge           Charge          ....    0
 Multiplicity           Mult            ....    1
 Number of Electrons    NEL             ....   14
 Basis Dimension        Dim             ....   77

ORBITAL ENERGIES
----------------

  NO   OCC          E(Eh)            E(eV)
   0   2.0000     -19.443480      -529.0840
   1   2.0000     -10.468754      -284.8693
   2   2.0000      -1.295336       -35.2479
   3   2.0000      -0.697476       -18.9793
   4   2.0000      -0.587393       -15.9838
   5   2.0000      -0.587393       -15.9838
   6   2.0000      -0.491722       -13.3804
   7   0.0000       0.049480         1.3464
   8   0.0000       0.052908         1.4397
   9   0.0000       0.052908         1.4397
  10   0.0000       0.088694         2.4135
  11   0.0000       0.090253         2.4559

MULLIKEN ATOMIC CHARGES
-----------------------
   0 O :   -0.123598
   1 C :    0.123598
Sum of atomic charges:   -0.0000000

LOEWDIN ATOMIC CHARGES
----------------------
   0 O :    0.008893
   1 C :   -0.008893

  Mayer bond orders larger than 0.100000
B(  0-O ,  1-C ) :   2.3170

FINAL SINGLE POINT ENERGY      -113.338751145060

DIPOLE MOMENT
-------------
                                X             Y             Z
Electronic contribution:     -0.00000      -0.00000       0.00668
Nuclear contribution   :      0.00000       0.00000       0.00720
                        -----------------------------------------
Total Dipole Moment    :     -0.00000      -0.00000       0.01387
                        -----------------------------------------
Magnitude (a.u.)       :      0.01387
Magnitude (Debye)      :      0.03526

Rotational constants in cm-1:     0.000000     1.908926     1.908926
Rotational constants in MHz :     0.000000 57228.174924 57228.174924

                             ****ORCA TERMINATED NORMALLY****
TOTAL RUN TIME: 0 days 0 hours 0 minutes 3 seconds 96 msec
