                         Program Version 4.2.0 -  RELEASE  -
|  1> #
|  2> # MOR06_cod wB97M-V/Def2-TZVPPD
|  3> #
|  4> ! wb97m-v def2-tzvppd def2/jk grid4 nofinalgrid
|  5>
|  6> *xyz 0 1
|  7> C        1.191389    1.227675   -0.516531
|  8> C        0.040474   -1.675611   -0.245785
|  9> C       -0.040358    1.675615   -0.245809
| 10> H        1.773340    1.813957   -1.228847
| 11> C       -1.191236   -1.227682   -0.516688
| 12> H        0.358706   -2.571437   -0.779467
| 13> H       -0.358419    2.571431   -0.779611
| 14> H       -1.772889   -1.813647   -1.229501
| 15> C       -1.080136    1.086431    0.676864
| 16> H       -1.767105    1.885380    0.980109
| 17> H       -0.630813    0.710792    1.597907
| 18> C        1.924335    0.021333    0.009175
| 19> H        2.698129    0.353800    0.719005
| 20> H        2.474959   -0.423127   -0.831863
| 21> C        1.079920   -1.086274    0.677130
| 22> H        0.630295   -0.710168    1.597840
| 23> H        1.766727   -1.885140    0.980948
| 24> C       -1.924342   -0.021538    0.009255
| 25> H       -2.697754   -0.354225    0.719400
| 26> H       -2.475456    0.422687   -0.831583
| 27> *
| 28>
| 29> %maxcore 5000
| 30>
| 31> %pal
| 32> nprocs = 24
| 33> end
| 34>
| 35>
| 36>                          ****END OF INPUT****

CARTESIAN COORDINATES (ANGSTROEM)
---------------------------------
  C      1.191389    1.227675   -0.516531
  C      0.040474   -1.675611   -0.245785
  C     -0.040358    1.675615   -0.245809
  H      1.773340    1.813957   -1.228847
  C     -1.191236   -1.227682   -0.516688
  H      0.358706   -2.571437   -0.779467
  H     -0.358419    2.571431   -0.779611
  H     -1.772889   -1.813647   -1.229501
  C     -1.080136    1.086431    0.676864
  H     -1.767105    1.885380    0.980109
  H     -0.630813    0.710792    1.597907
  C      1.924335    0.021333    0.009175
  H      2.698129    0.353800    0.719005
  H      2.474959   -0.423127   -0.831863
  C      1.079920   -1.086274    0.677130
  H      0.630295   -0.710168    1.597840
  H      1.766727   -1.885140    0.980948
  C     -1.924342   -0.021538    0.009255
  H     -2.697754   -0.354225    0.719400
  H     -2.475456    0.422687   -0.831583

 Total Charge           Charge          ....    0
 Multiplicity           Mult            ....    1
 Number of Electrons    NEL             ....   60
 Basis Dimension        Dim             ....  500

ORBITAL ENERGIES
----------------

  NO   OCC          E(Eh)            E(eV)
   0   2.0000     -10.347660      -281.5741
   1   2.0000     -10.347659      -281.5741
   2   2.0000     -10.344017      -281.4750
   3   2.0000     -10.344011      -281.4748
   4   2.0000     -10.340849      -281.3888
   5   2.0000     -10.340844      -281.3887
   6   2.0000     -10.338562      -281.3266
   7   2.0000     -10.338559      -281.3265
   8   2.0000      -0.952377       -25.9155
   9   2.0000      -0.898930       -24.4611
  10   2.0000      -0.893586       -24.3157
  11   2.0000      -0.808729       -22.0066
  12   2.0000      -0.790974       -21.5235
  13   2.0000      -0.712309       -19.3829
  14   2.0000      -0.650888       -17.7116
  15   2.0000      -0.631760       -17.1911
  16   2.0000      -0.590140       -16.0585
  17   2.0000      -0.559932       -15.2365
  18   2.0000      -0.547587       -14.9006
  19   2.0000      -0.540781       -14.7154
  20   2.0000      -0.520959       -14.1760
  21   2.0000      -0.508481       -13.8365
  22   2.0000      -0.473470       -12.8838
  23   2.0000      -0.471958       -12.8426
  24   2.0000      -0.460054       -12.5187
  25   2.0000      -0.432305       -11.7636
  26   2.0000      -0.416256       -11.3269
  27   2.0000      -0.406077       -11.0499
  28   2.0000      -0.339082        -9.2269
  29   2.0000      -0.335490        -9.1292
  30   0.0000       0.039965         1.0875
  31   0.0000       0.050121         1.3639
  32   0.0000       0.057609         1.5676
  33   0.0000       0.057797         1.5727
  34   0.0000       0.070627         1.9219

MULLIKEN ATOMIC CHARGES
-----------------------
   0 C :   -0.312324
   1 C :   -0.202215
   2 C :   -0.202897
   3 H :    0.145278
   4 C :   -0.313042
   5 H :    0.182952
   6 H :    0.182888
   7 H :    0.145016
   8 C :   -0.624135
   9 H :    0.328476
  10 H :    0.271869
  11 C :   -0.377469
  12 H :    0.293343
  13 H :    0.295057
  14 C :   -0.624462
  15 H :    0.271864
  16 H :    0.328528
  17 C :   -0.377086
  18 H :    0.293230
  19 H :    0.295130
Sum of atomic charges:    0.0000000

LOEWDIN ATOMIC CHARGES
----------------------
   0 C :    0.005541
   1 C :    0.010596
   2 C :    0.010622
   3 H :   -0.004075
   4 C :    0.005545
   5 H :   -0.002914
   6 H :   -0.002929
   7 H :   -0.004079
   8 C :   -0.028798
   9 H :    0.011613
  10 H :   -0.004195
  11 C :   -0.022543
  12 H :    0.018205
  13 H :    0.016550
  14 C :   -0.028781
  15 H :   -0.004189
  16 H :    0.011617
  17 C :   -0.022537
  18 H :    0.018213
  19 H :    0.016537

  Mayer bond orders larger than 0.100000
B(  0-C ,  2-C ) :   1.2482 B(  0-C ,  3-H ) :   1.1427 B(  0-C , 11-C ) :   0.6984
B(  1-C ,  4-C ) :   1.2478 B(  1-C ,  5-H ) :   1.0749 B(  1-C , 14-C ) :   0.6352
B(  1-C , 17-C ) :  -0.1098 B(  2-C ,  6-H ) :   1.0750 B(  2-C ,  8-C ) :   0.6355
B(  2-C , 11-C ) :  -0.1097 B(  4-C ,  7-H ) :   1.1432 B(  4-C , 17-C ) :   0.6975
B(  8-C ,  9-H ) :   1.0114 B(  8-C , 10-H ) :   1.0144 B(  8-C , 14-C ) :   0.1822
B(  8-C , 17-C ) :   0.5673 B( 11-C , 12-H ) :   0.9525 B( 11-C , 13-H ) :   0.9807
B( 11-C , 14-C ) :   0.5677 B( 14-C , 15-H ) :   1.0145 B( 14-C , 16-H ) :   1.0113
B( 17-C , 18-H ) :   0.9527 B( 17-C , 19-H ) :   0.9805

FINAL SINGLE POINT ENERGY      -311.987601194459

DIPOLE MOMENT
-------------
                                X             Y             Z
Electronic contribution:      0.00031      -0.00032      -0.85126
Nuclear contribution   :     -0.00029       0.00032       0.95237
                        -----------------------------------------
Total Dipole Moment    :      0.00002      -0.00000       0.10112
                        -----------------------------------------
Magnitude (a.u.)       :      0.10112
Magnitude (Debye)      :      0.25701

Rotational constants in cm-1:     0.087291     0.074989     0.047810
Rotational constants in MHz :  2616.931187  2248.128417  1433.302108

                             ****ORCA TERMINATED NORMALLY****
TOTAL RUN TIME: 0 days 0 hours 2 minutes 10 seconds 894 msec
