                         Program Version 4.2.0 -  RELEASE  -
|  1> #
|  2> # MOR07_ed01 wB97M-V/Def2-TZVPPD
|  3> #
|  4> ! wb97m-v def2-tzvppd def2/jk grid4 nofinalgrid
|  5>
|  6> *xyz 0 1
|  7> Cr      -0.000046    0.000041   -0.405569
|  8> O       -2.277907    2.043130   -0.317819
|  9> C       -1.422280    1.275470   -0.391359
| 10> C       -0.000325   -0.000192    1.429559
| 11> O       -0.000571   -0.000422    2.587655
| 12> C        1.422359   -1.275089   -0.391211
| 13> O        2.278285   -2.042429   -0.317709
| 14> C        1.275390    1.422211   -0.390822
| 15> O        2.043071    2.277781   -0.316760
| 16> C       -1.275267   -1.422351   -0.391135
| 17> O       -2.042647   -2.278220   -0.317434
| 18> *
| 19>
| 20> %maxcore 5000
| 21>
| 22> %pal
| 23> nprocs = 24
| 24> end
| 25>
| 26>
| 27>                          ****END OF INPUT****

CARTESIAN COORDINATES (ANGSTROEM)
---------------------------------
  Cr    -0.000046    0.000041   -0.405569
  O     -2.277907    2.043130   -0.317819
  C     -1.422280    1.275470   -0.391359
  C     -0.000325   -0.000192    1.429559
  O     -0.000571   -0.000422    2.587655
  C      1.422359   -1.275089   -0.391211
  O      2.278285   -2.042429   -0.317709
  C      1.275390    1.422211   -0.390822
  O      2.043071    2.277781   -0.316760
  C     -1.275267   -1.422351   -0.391135
  O     -2.042647   -2.278220   -0.317434

 Total Charge           Charge          ....    0
 Multiplicity           Mult            ....    1
 Number of Electrons    NEL             ....   94
 Basis Dimension        Dim             ....  452

ORBITAL ENERGIES
----------------

  NO   OCC          E(Eh)            E(eV)
   0   2.0000    -216.220884     -5883.6694
   1   2.0000     -24.965886      -679.3563
   2   2.0000     -21.174997      -576.2010
   3   2.0000     -21.174997      -576.2010
   4   2.0000     -21.174054      -576.1753
   5   2.0000     -19.433836      -528.8216
   6   2.0000     -19.433824      -528.8212
   7   2.0000     -19.433822      -528.8212
   8   2.0000     -19.433819      -528.8211
   9   2.0000     -19.406168      -528.0687
  10   2.0000     -10.485383      -285.3218
  11   2.0000     -10.485376      -285.3216
  12   2.0000     -10.485373      -285.3215
  13   2.0000     -10.485372      -285.3215
  14   2.0000     -10.466653      -284.8121
  15   2.0000      -3.030294       -82.4585
  16   2.0000      -1.958994       -53.3069
  17   2.0000      -1.958992       -53.3069
  18   2.0000      -1.958139       -53.2837
  19   2.0000      -1.282954       -34.9110
  20   2.0000      -1.282341       -34.8943
  21   2.0000      -1.282335       -34.8941
  22   2.0000      -1.281891       -34.8820
  23   2.0000      -1.255940       -34.1759
  24   2.0000      -0.735880       -20.0243
  25   2.0000      -0.699379       -19.0311
  26   2.0000      -0.699374       -19.0309
  27   2.0000      -0.694961       -18.9108
  28   2.0000      -0.680627       -18.5208
  29   2.0000      -0.618085       -16.8190
  30   2.0000      -0.603203       -16.4140
  31   2.0000      -0.596699       -16.2370
  32   2.0000      -0.596696       -16.2369
  33   2.0000      -0.591066       -16.0837
  34   2.0000      -0.588941       -16.0259
  35   2.0000      -0.588938       -16.0258
  36   2.0000      -0.579761       -15.7761
  37   2.0000      -0.572622       -15.5818
  38   2.0000      -0.561734       -15.2856
  39   2.0000      -0.561732       -15.2855
  40   2.0000      -0.557998       -15.1839
  41   2.0000      -0.532899       -14.5009
  42   2.0000      -0.525500       -14.2996
  43   2.0000      -0.525491       -14.2993
  44   2.0000      -0.338737        -9.2175
  45   2.0000      -0.336411        -9.1542
  46   2.0000      -0.336408        -9.1541
  47   0.0000      -0.052541        -1.4297
  48   0.0000       0.019529         0.5314
  49   0.0000       0.026710         0.7268
  50   0.0000       0.026712         0.7269
  51   0.0000       0.030022         0.8169

MULLIKEN ATOMIC CHARGES
-----------------------
   0 Cr:   -0.675001
   1 O :   -0.324514
   2 C :    0.462109
   3 C :    0.482929
   4 O :   -0.359003
   5 C :    0.462093
   6 O :   -0.324584
   7 C :    0.462413
   8 O :   -0.324548
   9 C :    0.462701
  10 O :   -0.324595
Sum of atomic charges:   -0.0000000

LOEWDIN ATOMIC CHARGES
----------------------
   0 Cr:   -0.295900
   1 O :    0.148185
   2 C :   -0.068356
   3 C :   -0.159223
   4 O :    0.135974
   5 C :   -0.068414
   6 O :    0.148187
   7 C :   -0.068418
   8 O :    0.148181
   9 C :   -0.068398
  10 O :    0.148182

  Mayer bond orders larger than 0.100000
B(  0-Cr,  2-C ) :   1.0001 B(  0-Cr,  3-C ) :   1.3650 B(  0-Cr,  4-O ) :   0.1210
B(  0-Cr,  5-C ) :   1.0002 B(  0-Cr,  7-C ) :   0.9996 B(  0-Cr,  9-C ) :   1.0001
B(  1-O ,  2-C ) :   2.0928 B(  3-C ,  4-O ) :   1.9134 B(  5-C ,  6-O ) :   2.0926
B(  7-C ,  8-O ) :   2.0925 B(  9-C , 10-O ) :   2.0926

FINAL SINGLE POINT ENERGY     -1611.222433494880

DIPOLE MOMENT
-------------
                                X             Y             Z
Electronic contribution:     -0.00033       0.00032      -2.43902
Nuclear contribution   :      0.00017      -0.00015       1.50310
                        -----------------------------------------
Total Dipole Moment    :     -0.00015       0.00017      -0.93592
                        -----------------------------------------
Magnitude (a.u.)       :      0.93592
Magnitude (Debye)      :      2.37892

Rotational constants in cm-1:     0.031146     0.031144     0.021766
Rotational constants in MHz :   933.731625   933.679962   652.524637

                             ****ORCA TERMINATED NORMALLY****
TOTAL RUN TIME: 0 days 0 hours 2 minutes 17 seconds 116 msec
