                         Program Version 4.2.0 -  RELEASE  -
|  1> #
|  2> # MOR18_ed37 wB97M-V/Def2-TZVPPD
|  3> #
|  4> ! wb97m-v def2-tzvppd def2/jk grid4 nofinalgrid
|  5>
|  6> *xyz 0 1
|  7> Mo      -0.098072   -0.000113   -0.000040
|  8> O       -1.958568   -1.162297    2.254949
|  9> C       -1.292076   -0.726548    1.409379
| 10> C       -1.290510    1.584735   -0.075353
| 11> O       -1.955816    2.535729   -0.120716
| 12> C       -1.292074   -0.856985   -1.334180
| 13> O       -1.958517   -1.371361   -2.134397
| 14> C        1.772262   -1.255233   -0.664863
| 15> C        1.773533   -1.210923    0.743855
| 16> C        1.772126    0.051067    1.419259
| 17> C        1.773764    1.248901    0.676519
| 18> C        1.772513    1.202801   -0.754108
| 19> C        1.773865   -0.039338   -1.420099
| 20> H        1.752441   -2.209415   -1.178166
| 21> H        1.754475   -2.130485    1.316775
| 22> H        1.752160    0.083668    2.502258
| 23> H        1.754801    2.204840    1.186440
| 24> H        1.752821    2.124408   -1.323840
| 25> H        1.755108   -0.075692   -2.502938
| 26> *
| 27>
| 28> %maxcore 5000
| 29>
| 30> %pal
| 31> nprocs = 24
| 32> end
| 33>
| 34>
| 35>                          ****END OF INPUT****

CARTESIAN COORDINATES (ANGSTROEM)
---------------------------------
  Mo    -0.098072   -0.000113   -0.000040
  O     -1.958568   -1.162297    2.254949
  C     -1.292076   -0.726548    1.409379
  C     -1.290510    1.584735   -0.075353
  O     -1.955816    2.535729   -0.120716
  C     -1.292074   -0.856985   -1.334180
  O     -1.958517   -1.371361   -2.134397
  C      1.772262   -1.255233   -0.664863
  C      1.773533   -1.210923    0.743855
  C      1.772126    0.051067    1.419259
  C      1.773764    1.248901    0.676519
  C      1.772513    1.202801   -0.754108
  C      1.773865   -0.039338   -1.420099
  H      1.752441   -2.209415   -1.178166
  H      1.754475   -2.130485    1.316775
  H      1.752160    0.083668    2.502258
  H      1.754801    2.204840    1.186440
  H      1.752821    2.124408   -1.323840
  H      1.755108   -0.075692   -2.502938

 Total Charge           Charge          ....    0
 Multiplicity           Mult            ....    1
 Number of Electrons    NEL             ....   98
 Basis Dimension        Dim             ....  611

ORBITAL ENERGIES
----------------

  NO   OCC          E(Eh)            E(eV)
   0   2.0000     -19.387789      -527.5686
   1   2.0000     -19.387785      -527.5685
   2   2.0000     -19.387780      -527.5683
   3   2.0000     -10.449222      -284.3378
   4   2.0000     -10.449218      -284.3377
   5   2.0000     -10.449215      -284.3376
   6   2.0000     -10.406091      -283.1641
   7   2.0000     -10.405942      -283.1601
   8   2.0000     -10.405938      -283.1600
   9   2.0000     -10.405351      -283.1440
  10   2.0000     -10.405350      -283.1440
  11   2.0000     -10.405183      -283.1394
  12   2.0000      -2.672559       -72.7240
  13   2.0000      -1.681950       -45.7682
  14   2.0000      -1.667028       -45.3621
  15   2.0000      -1.667018       -45.3619
  16   2.0000      -1.235511       -33.6200
  17   2.0000      -1.234831       -33.6015
  18   2.0000      -1.234828       -33.6014
  19   2.0000      -1.033448       -28.1215
  20   2.0000      -0.922613       -25.1056
  21   2.0000      -0.922612       -25.1055
  22   2.0000      -0.767406       -20.8822
  23   2.0000      -0.767404       -20.8821
  24   2.0000      -0.686733       -18.6869
  25   2.0000      -0.676962       -18.4211
  26   2.0000      -0.659715       -17.9518
  27   2.0000      -0.659708       -17.9516
  28   2.0000      -0.614608       -16.7243
  29   2.0000      -0.596799       -16.2397
  30   2.0000      -0.582742       -15.8572
  31   2.0000      -0.582742       -15.8572
  32   2.0000      -0.571332       -15.5467
  33   2.0000      -0.555664       -15.1204
  34   2.0000      -0.551159       -14.9978
  35   2.0000      -0.551147       -14.9975
  36   2.0000      -0.539575       -14.6826
  37   2.0000      -0.539571       -14.6825
  38   2.0000      -0.533408       -14.5148
  39   2.0000      -0.517796       -14.0899
  40   2.0000      -0.517780       -14.0895
  41   2.0000      -0.502031       -13.6610
  42   2.0000      -0.490353       -13.3432
  43   2.0000      -0.490349       -13.3431
  44   2.0000      -0.426039       -11.5931
  45   2.0000      -0.426029       -11.5928
  46   2.0000      -0.299605        -8.1527
  47   2.0000      -0.294640        -8.0176
  48   2.0000      -0.294623        -8.0171
  49   0.0000       0.013945         0.3795
  50   0.0000       0.013957         0.3798
  51   0.0000       0.024285         0.6608
  52   0.0000       0.033566         0.9134
  53   0.0000       0.033586         0.9139

MULLIKEN ATOMIC CHARGES
-----------------------
   0 Mo:   -0.559849
   1 O :   -0.344172
   2 C :    0.413727
   3 C :    0.413068
   4 O :   -0.344150
   5 C :    0.413511
   6 O :   -0.344299
   7 C :   -0.121122
   8 C :   -0.143840
   9 C :   -0.120497
  10 C :   -0.142969
  11 C :   -0.122990
  12 C :   -0.142463
  13 H :    0.194771
  14 H :    0.187065
  15 H :    0.195525
  16 H :    0.186285
  17 H :    0.195256
  18 H :    0.187142
Sum of atomic charges:    0.0000000

LOEWDIN ATOMIC CHARGES
----------------------
   0 Mo:    0.633284
   1 O :    0.072975
   2 C :   -0.212195
   3 C :   -0.212248
   4 O :    0.072979
   5 C :   -0.212206
   6 O :    0.072964
   7 C :   -0.051209
   8 C :   -0.049955
   9 C :   -0.051260
  10 C :   -0.049992
  11 C :   -0.051257
  12 C :   -0.049969
  13 H :    0.014850
  14 H :    0.014499
  15 H :    0.014859
  16 H :    0.014508
  17 H :    0.014867
  18 H :    0.014505

  Mayer bond orders larger than 0.100000
B(  0-Mo,  2-C ) :   1.2996 B(  0-Mo,  3-C ) :   1.2993 B(  0-Mo,  5-C ) :   1.2995
B(  0-Mo,  7-C ) :   0.3906 B(  0-Mo,  8-C ) :   0.3962 B(  0-Mo,  9-C ) :   0.3897
B(  0-Mo, 10-C ) :   0.3967 B(  0-Mo, 11-C ) :   0.3912 B(  0-Mo, 12-C ) :   0.3957
B(  1-O ,  2-C ) :   1.8805 B(  3-C ,  4-O ) :   1.8803 B(  5-C ,  6-O ) :   1.8805
B(  7-C ,  8-C ) :   1.0252 B(  7-C ,  9-C ) :  -0.1096 B(  7-C , 11-C ) :  -0.1100
B(  7-C , 12-C ) :   0.7933 B(  7-C , 13-H ) :   1.0836 B(  8-C ,  9-C ) :   0.7932
B(  8-C , 10-C ) :  -0.1097 B(  8-C , 12-C ) :  -0.1092 B(  8-C , 14-H ) :   1.0898
B(  9-C , 10-C ) :   1.0194 B(  9-C , 11-C ) :  -0.1095 B(  9-C , 15-H ) :   1.0832
B( 10-C , 11-C ) :   0.7951 B( 10-C , 12-C ) :  -0.1086 B( 10-C , 16-H ) :   1.0911
B( 11-C , 12-C ) :   1.0205 B( 11-C , 17-H ) :   1.0844 B( 12-C , 18-H ) :   1.0896

FINAL SINGLE POINT ENERGY      -640.524396148031

DIPOLE MOMENT
-------------
                                X             Y             Z
Electronic contribution:    -11.09450      -0.00591      -0.00267
Nuclear contribution   :     13.46160       0.00506       0.00283
                        -----------------------------------------
Total Dipole Moment    :      2.36710      -0.00085       0.00016
                        -----------------------------------------
Magnitude (a.u.)       :      2.36710
Magnitude (Debye)      :      6.01669

Rotational constants in cm-1:     0.028916     0.021584     0.021580
Rotational constants in MHz :   866.875127   647.065472   646.965216

                             ****ORCA TERMINATED NORMALLY****
TOTAL RUN TIME: 0 days 0 hours 5 minutes 7 seconds 145 msec
