                         Program Version 4.2.0 -  RELEASE  -
|  1> #
|  2> # MOR12_ed18 wB97M-V/Def2-TZVPPD
|  3> #
|  4> ! wb97m-v def2-tzvppd def2/jk grid4 nofinalgrid
|  5>
|  6> *xyz 0 1
|  7> Ir       0.000009    0.119441   -0.001134
|  8> P        2.313164   -0.026854    0.000864
|  9> C        3.266155    1.538041    0.001301
| 10> C        2.990776   -0.938546    1.437922
| 11> H        4.076753   -1.056364    1.355244
| 12> H        4.080827   -1.059585   -1.345638
| 13> H        2.508332   -1.918605    1.474823
| 14> H        2.511934   -1.920062   -1.470843
| 15> H        3.000883    2.123603    0.885753
| 16> H        2.748975   -0.395301    2.355327
| 17> C        2.995346   -0.940504   -1.432774
| 18> H        4.343510    1.342437    0.003886
| 19> H        2.757870   -0.397739   -2.351580
| 20> H        3.004825    2.121649   -0.885628
| 21> P       -2.313239   -0.026297    0.000821
| 22> C       -3.266059    1.538685   -0.001751
| 23> C       -2.995240   -0.942628   -1.431183
| 24> H       -2.509974   -1.915937    1.477317
| 25> H       -4.077346   -1.051885    1.357522
| 26> H       -2.748166   -0.391240    2.356043
| 27> C       -2.991181   -0.935299    1.439450
| 28> H       -2.510085   -1.921339   -1.468610
| 29> H       -4.080420   -1.063528   -1.342825
| 30> H       -4.343438    1.343207   -0.001601
| 31> H       -3.002541    2.121837   -0.888321
| 32> H       -2.759672   -0.400400   -2.350803
| 33> H       -3.002807    2.124611    0.883073
| 34> C        0.000649    1.940082   -0.001490
| 35> O        0.001240    3.110505   -0.001979
| 36> Cl      -0.000683   -2.266357   -0.002005
| 37> *
| 38>
| 39> %maxcore 5000
| 40>
| 41> %pal
| 42> nprocs = 24
| 43> end
| 44>
| 45>
| 46>                          ****END OF INPUT****

CARTESIAN COORDINATES (ANGSTROEM)
---------------------------------
  Ir     0.000009    0.119441   -0.001134
  P      2.313164   -0.026854    0.000864
  C      3.266155    1.538041    0.001301
  C      2.990776   -0.938546    1.437922
  H      4.076753   -1.056364    1.355244
  H      4.080827   -1.059585   -1.345638
  H      2.508332   -1.918605    1.474823
  H      2.511934   -1.920062   -1.470843
  H      3.000883    2.123603    0.885753
  H      2.748975   -0.395301    2.355327
  C      2.995346   -0.940504   -1.432774
  H      4.343510    1.342437    0.003886
  H      2.757870   -0.397739   -2.351580
  H      3.004825    2.121649   -0.885628
  P     -2.313239   -0.026297    0.000821
  C     -3.266059    1.538685   -0.001751
  C     -2.995240   -0.942628   -1.431183
  H     -2.509974   -1.915937    1.477317
  H     -4.077346   -1.051885    1.357522
  H     -2.748166   -0.391240    2.356043
  C     -2.991181   -0.935299    1.439450
  H     -2.510085   -1.921339   -1.468610
  H     -4.080420   -1.063528   -1.342825
  H     -4.343438    1.343207   -0.001601
  H     -3.002541    2.121837   -0.888321
  H     -2.759672   -0.400400   -2.350803
  H     -3.002807    2.124611    0.883073
  C      0.000649    1.940082   -0.001490
  O      0.001240    3.110505   -0.001979
  Cl    -0.000683   -2.266357   -0.002005

 Total Charge           Charge          ....    0
 Multiplicity           Mult            ....    1
 Number of Electrons    NEL             ....  132
 Basis Dimension        Dim             ....  811

ORBITAL ENERGIES
----------------

  NO   OCC          E(Eh)            E(eV)
   0   2.0000    -101.801434     -2770.1578
   1   2.0000     -77.404217     -2106.2758
   2   2.0000     -77.404207     -2106.2756
   3   2.0000     -19.375428      -527.2322
   4   2.0000     -10.447953      -284.3032
   5   2.0000     -10.352831      -281.7148
   6   2.0000     -10.352829      -281.7148
   7   2.0000     -10.346773      -281.5500
   8   2.0000     -10.346763      -281.5497
   9   2.0000     -10.346757      -281.5496
  10   2.0000     -10.346719      -281.5485
  11   2.0000      -9.574397      -260.5326
  12   2.0000      -7.275608      -197.9793
  13   2.0000      -7.272777      -197.9023
  14   2.0000      -7.272227      -197.8874
  15   2.0000      -6.750228      -183.6830
  16   2.0000      -6.750218      -183.6828
  17   2.0000      -4.862909      -132.3265
  18   2.0000      -4.862900      -132.3262
  19   2.0000      -4.862625      -132.3188
  20   2.0000      -4.862615      -132.3185
  21   2.0000      -4.859880      -132.2441
  22   2.0000      -4.859871      -132.2438
  23   2.0000      -3.800107      -103.4062
  24   2.0000      -2.150547       -58.5194
  25   2.0000      -2.138237       -58.1844
  26   2.0000      -2.108501       -57.3752
  27   2.0000      -1.222496       -33.2658
  28   2.0000      -0.907725       -24.7005
  29   2.0000      -0.904470       -24.6119
  30   2.0000      -0.865461       -23.5504
  31   2.0000      -0.826243       -22.4832
  32   2.0000      -0.825349       -22.4589
  33   2.0000      -0.821652       -22.3583
  34   2.0000      -0.821610       -22.3572
  35   2.0000      -0.684803       -18.6344
  36   2.0000      -0.666277       -18.1303
  37   2.0000      -0.662144       -18.0179
  38   2.0000      -0.574658       -15.6372
  39   2.0000      -0.566302       -15.4098
  40   2.0000      -0.560982       -15.2651
  41   2.0000      -0.553932       -15.0733
  42   2.0000      -0.548392       -14.9225
  43   2.0000      -0.546768       -14.8783
  44   2.0000      -0.543019       -14.7763
  45   2.0000      -0.539533       -14.6814
  46   2.0000      -0.536332       -14.5943
  47   2.0000      -0.518862       -14.1189
  48   2.0000      -0.516182       -14.0460
  49   2.0000      -0.516009       -14.0413
  50   2.0000      -0.512552       -13.9472
  51   2.0000      -0.498597       -13.5675
  52   2.0000      -0.498167       -13.5558
  53   2.0000      -0.456627       -12.4255
  54   2.0000      -0.449441       -12.2299
  55   2.0000      -0.446739       -12.1564
  56   2.0000      -0.444782       -12.1031
  57   2.0000      -0.442227       -12.0336
  58   2.0000      -0.400959       -10.9106
  59   2.0000      -0.399730       -10.8772
  60   2.0000      -0.389465       -10.5979
  61   2.0000      -0.351879        -9.5751
  62   2.0000      -0.329310        -8.9610
  63   2.0000      -0.325205        -8.8493
  64   2.0000      -0.315622        -8.5885
  65   2.0000      -0.301208        -8.1963
  66   0.0000       0.020675         0.5626
  67   0.0000       0.027476         0.7477
  68   0.0000       0.027516         0.7488
  69   0.0000       0.036227         0.9858
  70   0.0000       0.055920         1.5217

MULLIKEN ATOMIC CHARGES
-----------------------
   0 Ir:    0.175742
   1 P :    0.585022
   2 C :   -1.100245
   3 C :   -1.014150
   4 H :    0.376028
   5 H :    0.375790
   6 H :    0.302497
   7 H :    0.302140
   8 H :    0.301236
   9 H :    0.279839
  10 C :   -1.013951
  11 H :    0.376389
  12 H :    0.279646
  13 H :    0.301370
  14 P :    0.584985
  15 C :   -1.100021
  16 C :   -1.013773
  17 H :    0.302589
  18 H :    0.376132
  19 H :    0.279732
  20 C :   -1.014143
  21 H :    0.302077
  22 H :    0.375698
  23 H :    0.376354
  24 H :    0.301167
  25 H :    0.279698
  26 H :    0.301342
  27 C :    0.256035
  28 O :   -0.551773
  29 Cl:   -0.583451
Sum of atomic charges:    0.0000000

LOEWDIN ATOMIC CHARGES
----------------------
   0 Ir:    0.325986
   1 P :    0.712456
   2 C :   -0.026892
   3 C :   -0.029964
   4 H :   -0.045839
   5 H :   -0.045827
   6 H :   -0.079810
   7 H :   -0.079901
   8 H :   -0.047651
   9 H :   -0.049689
  10 C :   -0.029931
  11 H :   -0.046249
  12 H :   -0.049669
  13 H :   -0.047581
  14 P :    0.712431
  15 C :   -0.026886
  16 C :   -0.030049
  17 H :   -0.079626
  18 H :   -0.045846
  19 H :   -0.049721
  20 C :   -0.029913
  21 H :   -0.080255
  22 H :   -0.045825
  23 H :   -0.046252
  24 H :   -0.047630
  25 H :   -0.049640
  26 H :   -0.047615
  27 C :   -0.490981
  28 O :    0.018423
  29 Cl:   -0.120052

  Mayer bond orders larger than 0.100000
B(  0-Ir,  1-P ) :   0.8214 B(  0-Ir, 14-P ) :   0.8210 B(  0-Ir, 27-C ) :   1.8644
B(  0-Ir, 28-O ) :   0.1479 B(  0-Ir, 29-Cl) :   0.3005 B(  1-P ,  2-C ) :   0.6365
B(  1-P ,  3-C ) :   0.8078 B(  1-P , 10-C ) :   0.8081 B(  1-P , 29-Cl) :   0.3356
B(  2-C ,  8-H ) :   0.9716 B(  2-C , 11-H ) :   0.8827 B(  2-C , 13-H ) :   0.9717
B(  3-C ,  4-H ) :   0.8731 B(  3-C ,  6-H ) :   0.9409 B(  3-C ,  9-H ) :   0.9732
B(  5-H , 10-C ) :   0.8734 B(  7-H , 10-C ) :   0.9411 B( 10-C , 12-H ) :   0.9733
B( 14-P , 15-C ) :   0.6365 B( 14-P , 16-C ) :   0.8078 B( 14-P , 20-C ) :   0.8082
B( 14-P , 29-Cl) :   0.3360 B( 15-C , 23-H ) :   0.8828 B( 15-C , 24-H ) :   0.9718
B( 15-C , 26-H ) :   0.9715 B( 16-C , 21-H ) :   0.9412 B( 16-C , 22-H ) :   0.8734
B( 16-C , 25-H ) :   0.9735 B( 17-H , 20-C ) :   0.9408 B( 18-H , 20-C ) :   0.8730
B( 19-H , 20-C ) :   0.9733 B( 27-C , 28-O ) :   1.8284

FINAL SINGLE POINT ENERGY     -1600.139306547496

DIPOLE MOMENT
-------------
                                X             Y             Z
Electronic contribution:      0.00112      16.12886      -0.17789
Nuclear contribution   :     -0.00090     -15.69990       0.18198
                        -----------------------------------------
Total Dipole Moment    :      0.00022       0.42896       0.00409
                        -----------------------------------------
Magnitude (a.u.)       :      0.42898
Magnitude (Debye)      :      1.09037

Rotational constants in cm-1:     0.025294     0.012430     0.009680
Rotational constants in MHz :   758.298673   372.651784   290.199928

                             ****ORCA TERMINATED NORMALLY****
TOTAL RUN TIME: 0 days 0 hours 9 minutes 38 seconds 282 msec
