                         Program Version 4.2.0 -  RELEASE  -
|  1> #
|  2> # MOR13_ed24 wB97M-V/Def2-TZVPPD
|  3> #
|  4> ! wb97m-v def2-tzvppd def2/jk grid4 nofinalgrid
|  5>
|  6> *xyz 0 1
|  7> Ru       0.947158   -0.829727   -0.745491
|  8> Cl       0.759536   -0.029843   -2.889353
|  9> Cl       0.924249   -2.813196    0.406526
| 10> P       -0.892858    0.059346    0.070519
| 11> C        2.105770    0.298407    0.120511
| 12> C       -1.060848    0.304387    1.904454
| 13> C       -0.839571   -1.004781    2.681683
| 14> C       -1.204393   -0.821649    4.161076
| 15> C       -0.398097    0.318884    4.794081
| 16> C       -0.569062    1.619286    3.999752
| 17> C       -0.203235    1.422010    2.520494
| 18> C       -1.361193    1.675223   -0.723442
| 19> C       -0.190670    2.668218   -0.863157
| 20> C       -0.617010    3.874515   -1.709852
| 21> C       -1.846047    4.572418   -1.115292
| 22> C       -3.005112    3.584426   -0.940399
| 23> C       -2.585621    2.369196   -0.098214
| 24> C       -2.266825   -1.149912   -0.318948
| 25> C       -3.572387   -1.071522    0.495585
| 26> C       -4.464103   -2.278800    0.161919
| 27> C       -4.771803   -2.353480   -1.338652
| 28> C       -3.481398   -2.368379   -2.166970
| 29> C       -2.587234   -1.168835   -1.825450
| 30> H        1.784946    1.202955    0.645761
| 31> H       -2.115821    0.600966    2.014947
| 32> H        0.212402   -1.294098    2.586311
| 33> H       -1.418447   -1.824644    2.245913
| 34> H       -1.028300   -1.758851    4.701667
| 35> H       -2.278352   -0.600113    4.247046
| 36> H        0.665500    0.042496    4.804792
| 37> H       -0.699682    0.468438    5.837587
| 38> H        0.050942    2.415093    4.429614
| 39> H       -1.613622    1.955784    4.068877
| 40> H       -0.334942    2.362910    1.978268
| 41> H        0.854749    1.145201    2.447640
| 42> H       -1.618911    1.357234   -1.743817
| 43> H        0.662106    2.166051   -1.325328
| 44> H        0.125060    3.019280    0.127484
| 45> H       -0.846735    3.527698   -2.726710
| 46> H        0.219033    4.578695   -1.795316
| 47> H       -2.156025    5.410629   -1.750528
| 48> H       -1.583038    4.996180   -0.135073
| 49> H       -3.336384    3.234608   -1.928191
| 50> H       -3.864727    4.078543   -0.471441
| 51> H       -2.338056    2.702879    0.918040
| 52> H       -3.425897    1.674720   -0.010060
| 53> H       -1.782812   -2.105972   -0.070582
| 54> H       -4.113822   -0.149509    0.251918
| 55> H       -3.369403   -1.053503    1.570362
| 56> H       -5.393534   -2.221008    0.741223
| 57> H       -3.947864   -3.196972    0.475160
| 58> H       -5.374229   -1.479434   -1.625752
| 59> H       -5.376744   -3.241409   -1.557196
| 60> H       -3.714322   -2.363052   -3.238224
| 61> H       -2.925851   -3.294401   -1.964642
| 62> H       -1.666731   -1.193589   -2.417765
| 63> H       -3.111760   -0.241279   -2.093787
| 64> C        3.546496    0.126586    0.028364
| 65> C        4.389877    1.228237    0.286046
| 66> C        5.770146    1.113346    0.161104
| 67> C        6.339467   -0.106460   -0.212258
| 68> C        5.519417   -1.212931   -0.453677
| 69> C        4.139965   -1.102236   -0.332827
| 70> H        3.943201    2.177101    0.573360
| 71> H        6.405205    1.972855    0.357301
| 72> H        5.961339   -2.166857   -0.726887
| 73> H        3.508028   -1.975261   -0.480581
| 74> H        7.417884   -0.197821   -0.305099
| 75> *
| 76>
| 77> %maxcore 5000
| 78>
| 79> %pal
| 80> nprocs = 24
| 81> end
| 82>
| 83>
| 84>                          ****END OF INPUT****

CARTESIAN COORDINATES (ANGSTROEM)
---------------------------------
  Ru     0.947158   -0.829727   -0.745491
  Cl     0.759536   -0.029843   -2.889353
  Cl     0.924249   -2.813196    0.406526
  P     -0.892858    0.059346    0.070519
  C      2.105770    0.298407    0.120511
  C     -1.060848    0.304387    1.904454
  C     -0.839571   -1.004781    2.681683
  C     -1.204393   -0.821649    4.161076
  C     -0.398097    0.318884    4.794081
  C     -0.569062    1.619286    3.999752
  C     -0.203235    1.422010    2.520494
  C     -1.361193    1.675223   -0.723442
  C     -0.190670    2.668218   -0.863157
  C     -0.617010    3.874515   -1.709852
  C     -1.846047    4.572418   -1.115292
  C     -3.005112    3.584426   -0.940399
  C     -2.585621    2.369196   -0.098214
  C     -2.266825   -1.149912   -0.318948
  C     -3.572387   -1.071522    0.495585
  C     -4.464103   -2.278800    0.161919
  C     -4.771803   -2.353480   -1.338652
  C     -3.481398   -2.368379   -2.166970
  C     -2.587234   -1.168835   -1.825450
  H      1.784946    1.202955    0.645761
  H     -2.115821    0.600966    2.014947
  H      0.212402   -1.294098    2.586311
  H     -1.418447   -1.824644    2.245913
  H     -1.028300   -1.758851    4.701667
  H     -2.278352   -0.600113    4.247046
  H      0.665500    0.042496    4.804792
  H     -0.699682    0.468438    5.837587
  H      0.050942    2.415093    4.429614
  H     -1.613622    1.955784    4.068877
  H     -0.334942    2.362910    1.978268
  H      0.854749    1.145201    2.447640
  H     -1.618911    1.357234   -1.743817
  H      0.662106    2.166051   -1.325328
  H      0.125060    3.019280    0.127484
  H     -0.846735    3.527698   -2.726710
  H      0.219033    4.578695   -1.795316
  H     -2.156025    5.410629   -1.750528
  H     -1.583038    4.996180   -0.135073
  H     -3.336384    3.234608   -1.928191
  H     -3.864727    4.078543   -0.471441
  H     -2.338056    2.702879    0.918040
  H     -3.425897    1.674720   -0.010060
  H     -1.782812   -2.105972   -0.070582
  H     -4.113822   -0.149509    0.251918
  H     -3.369403   -1.053503    1.570362
  H     -5.393534   -2.221008    0.741223
  H     -3.947864   -3.196972    0.475160
  H     -5.374229   -1.479434   -1.625752
  H     -5.376744   -3.241409   -1.557196
  H     -3.714322   -2.363052   -3.238224
  H     -2.925851   -3.294401   -1.964642
  H     -1.666731   -1.193589   -2.417765
  H     -3.111760   -0.241279   -2.093787
  C      3.546496    0.126586    0.028364
  C      4.389877    1.228237    0.286046
  C      5.770146    1.113346    0.161104
  C      6.339467   -0.106460   -0.212258
  C      5.519417   -1.212931   -0.453677
  C      4.139965   -1.102236   -0.332827
  H      3.943201    2.177101    0.573360
  H      6.405205    1.972855    0.357301
  H      5.961339   -2.166857   -0.726887
  H      3.508028   -1.975261   -0.480581
  H      7.417884   -0.197821   -0.305099

 Total Charge           Charge          ....    0
 Multiplicity           Mult            ....    1
 Number of Electrons    NEL             ....  254
 Basis Dimension        Dim             .... 1794

ORBITAL ENERGIES
----------------

  NO   OCC          E(Eh)            E(eV)
   0   2.0000    -101.818417     -2770.6200
   1   2.0000    -101.817312     -2770.5899
   2   2.0000     -77.413068     -2106.5167
   3   2.0000     -10.382407      -282.5197
   4   2.0000     -10.368751      -282.1481
   5   2.0000     -10.368174      -282.1324
   6   2.0000     -10.364631      -282.0360
   7   2.0000     -10.364476      -282.0317
   8   2.0000     -10.363216      -281.9974
   9   2.0000     -10.361881      -281.9611
  10   2.0000     -10.359963      -281.9089
  11   2.0000     -10.359706      -281.9019
  12   2.0000     -10.358182      -281.8605
  13   2.0000     -10.356247      -281.8078
  14   2.0000     -10.355972      -281.8003
  15   2.0000     -10.354554      -281.7617
  16   2.0000     -10.349862      -281.6341
  17   2.0000     -10.348694      -281.6023
  18   2.0000     -10.347043      -281.5574
  19   2.0000     -10.346919      -281.5540
  20   2.0000     -10.345014      -281.5021
  21   2.0000     -10.344962      -281.5007
  22   2.0000     -10.344844      -281.4975
  23   2.0000     -10.344732      -281.4945
  24   2.0000     -10.344428      -281.4862
  25   2.0000     -10.343233      -281.4537
  26   2.0000     -10.342119      -281.4234
  27   2.0000     -10.342112      -281.4232
  28   2.0000      -9.591420      -260.9958
  29   2.0000      -9.590313      -260.9657
  30   2.0000      -7.292765      -198.4462
  31   2.0000      -7.291646      -198.4158
  32   2.0000      -7.289721      -198.3634
  33   2.0000      -7.289169      -198.3484
  34   2.0000      -7.288637      -198.3339
  35   2.0000      -7.288054      -198.3180
  36   2.0000      -6.758857      -183.9179
  37   2.0000      -4.871120      -132.5499
  38   2.0000      -4.870992      -132.5464
  39   2.0000      -4.869317      -132.5008
  40   2.0000      -3.167506       -86.1922
  41   2.0000      -2.011062       -54.7238
  42   2.0000      -2.009264       -54.6749
  43   2.0000      -1.995900       -54.3112
  44   2.0000      -0.994853       -27.0713
  45   2.0000      -0.981111       -26.6974
  46   2.0000      -0.966762       -26.3069
  47   2.0000      -0.965607       -26.2755
  48   2.0000      -0.905431       -24.6380
  49   2.0000      -0.902287       -24.5525
  50   2.0000      -0.883845       -24.0506
  51   2.0000      -0.879932       -23.9442
  52   2.0000      -0.878792       -23.9132
  53   2.0000      -0.874258       -23.7898
  54   2.0000      -0.873463       -23.7681
  55   2.0000      -0.871981       -23.7278
  56   2.0000      -0.868475       -23.6324
  57   2.0000      -0.867109       -23.5952
  58   2.0000      -0.791679       -21.5427
  59   2.0000      -0.784278       -21.3413
  60   2.0000      -0.744434       -20.2571
  61   2.0000      -0.737838       -20.0776
  62   2.0000      -0.734410       -19.9843
  63   2.0000      -0.731680       -19.9100
  64   2.0000      -0.729500       -19.8507
  65   2.0000      -0.725590       -19.7443
  66   2.0000      -0.698006       -18.9937
  67   2.0000      -0.686232       -18.6733
  68   2.0000      -0.684374       -18.6228
  69   2.0000      -0.682520       -18.5723
  70   2.0000      -0.660071       -17.9614
  71   2.0000      -0.629570       -17.1315
  72   2.0000      -0.604111       -16.4387
  73   2.0000      -0.598681       -16.2909
  74   2.0000      -0.588938       -16.0258
  75   2.0000      -0.583775       -15.8853
  76   2.0000      -0.569258       -15.4903
  77   2.0000      -0.562713       -15.3122
  78   2.0000      -0.561723       -15.2853
  79   2.0000      -0.560146       -15.2423
  80   2.0000      -0.557458       -15.1692
  81   2.0000      -0.553667       -15.0661
  82   2.0000      -0.552546       -15.0356
  83   2.0000      -0.547758       -14.9053
  84   2.0000      -0.543276       -14.7833
  85   2.0000      -0.535218       -14.5640
  86   2.0000      -0.529479       -14.4078
  87   2.0000      -0.528453       -14.3799
  88   2.0000      -0.504600       -13.7309
  89   2.0000      -0.502096       -13.6627
  90   2.0000      -0.495423       -13.4812
  91   2.0000      -0.492690       -13.4068
  92   2.0000      -0.491404       -13.3718
  93   2.0000      -0.490754       -13.3541
  94   2.0000      -0.487889       -13.2761
  95   2.0000      -0.478339       -13.0163
  96   2.0000      -0.476543       -12.9674
  97   2.0000      -0.469320       -12.7709
  98   2.0000      -0.463947       -12.6246
  99   2.0000      -0.460775       -12.5383
 100   2.0000      -0.457885       -12.4597
 101   2.0000      -0.456200       -12.4138
 102   2.0000      -0.453988       -12.3536
 103   2.0000      -0.451838       -12.2951
 104   2.0000      -0.450841       -12.2680
 105   2.0000      -0.446257       -12.1433
 106   2.0000      -0.442508       -12.0413
 107   2.0000      -0.438434       -11.9304
 108   2.0000      -0.435139       -11.8407
 109   2.0000      -0.429784       -11.6950
 110   2.0000      -0.427599       -11.6356
 111   2.0000      -0.423459       -11.5229
 112   2.0000      -0.421567       -11.4714
 113   2.0000      -0.410901       -11.1812
 114   2.0000      -0.407069       -11.0769
 115   2.0000      -0.405900       -11.0451
 116   2.0000      -0.398368       -10.8401
 117   2.0000      -0.393443       -10.7061
 118   2.0000      -0.387429       -10.5425
 119   2.0000      -0.386697       -10.5226
 120   2.0000      -0.382185       -10.3998
 121   2.0000      -0.377892       -10.2830
 122   2.0000      -0.368351       -10.0233
 123   2.0000      -0.354982        -9.6595
 124   2.0000      -0.332656        -9.0520
 125   2.0000      -0.310736        -8.4556
 126   2.0000      -0.298968        -8.1353
 127   0.0000      -0.010213        -0.2779
 128   0.0000       0.007909         0.2152
 129   0.0000       0.022901         0.6232
 130   0.0000       0.029696         0.8081
 131   0.0000       0.033143         0.9019

MULLIKEN ATOMIC CHARGES
-----------------------
   0 Ru:   -1.835026
   1 Cl:   -0.476019
   2 Cl:   -0.480722
   3 P :    1.844812
   4 C :    0.978077
   5 C :    0.479500
   6 C :   -1.291784
   7 C :   -0.961304
   8 C :   -0.867681
   9 C :   -1.081891
  10 C :   -0.666890
  11 C :    0.368915
  12 C :   -0.887490
  13 C :   -1.088742
  14 C :   -0.782589
  15 C :   -1.044930
  16 C :   -0.591076
  17 C :    0.595163
  18 C :   -0.745088
  19 C :   -1.037592
  20 C :   -0.803034
  21 C :   -0.982481
  22 C :   -1.052509
  23 H :   -0.153047
  24 H :    0.864460
  25 H :    0.308322
  26 H :    0.429314
  27 H :    0.423113
  28 H :    0.355119
  29 H :    0.303738
  30 H :    0.428602
  31 H :    0.425835
  32 H :    0.368260
  33 H :    0.174058
  34 H :    0.303136
  35 H :    0.931450
  36 H :    0.181534
  37 H :    0.271708
  38 H :    0.366138
  39 H :    0.391894
  40 H :    0.402170
  41 H :    0.287563
  42 H :    0.378461
  43 H :    0.396956
  44 H :    0.330177
  45 H :    0.066003
  46 H :    0.726556
  47 H :    0.250136
  48 H :    0.206515
  49 H :    0.390334
  50 H :    0.421575
  51 H :    0.303153
  52 H :    0.397834
  53 H :    0.380850
  54 H :    0.365939
  55 H :    0.405780
  56 H :    0.332503
  57 C :    0.944069
  58 C :   -0.364349
  59 C :   -0.361834
  60 C :   -0.121035
  61 C :   -0.442638
  62 C :   -0.198037
  63 H :    0.128407
  64 H :    0.155838
  65 H :    0.162893
  66 H :   -0.070645
  67 H :    0.161576
Sum of atomic charges:   -0.0000000

LOEWDIN ATOMIC CHARGES
----------------------
   0 Ru:    0.364682
   1 Cl:   -0.017086
   2 Cl:   -0.015843
   3 P :    1.000448
   4 C :   -0.125870
   5 C :   -0.281182
   6 C :   -0.063510
   7 C :   -0.008069
   8 C :   -0.017619
   9 C :   -0.007835
  10 C :   -0.027784
  11 C :   -0.287407
  12 C :   -0.060367
  13 C :   -0.007099
  14 C :   -0.019184
  15 C :   -0.009063
  16 C :   -0.017144
  17 C :   -0.288333
  18 C :   -0.022671
  19 C :   -0.007837
  20 C :   -0.019398
  21 C :   -0.008967
  22 C :   -0.049190
  23 H :   -0.074077
  24 H :   -0.005082
  25 H :   -0.021811
  26 H :   -0.007497
  27 H :    0.018091
  28 H :    0.022148
  29 H :    0.024120
  30 H :    0.014108
  31 H :    0.016638
  32 H :    0.023790
  33 H :   -0.009733
  34 H :    0.006514
  35 H :   -0.022807
  36 H :   -0.053560
  37 H :    0.002735
  38 H :    0.026659
  39 H :    0.017579
  40 H :    0.014027
  41 H :    0.021820
  42 H :    0.024744
  43 H :    0.015962
  44 H :    0.016417
  45 H :   -0.007118
  46 H :   -0.042120
  47 H :    0.006271
  48 H :   -0.002614
  49 H :    0.016254
  50 H :    0.026113
  51 H :    0.021755
  52 H :    0.014122
  53 H :    0.017328
  54 H :    0.026379
  55 H :   -0.046052
  56 H :    0.020133
  57 C :   -0.237839
  58 C :    0.043877
  59 C :    0.015893
  60 C :    0.018706
  61 C :    0.023354
  62 C :    0.032824
  63 H :    0.010146
  64 H :    0.002129
  65 H :    0.005373
  66 H :   -0.041099
  67 H :    0.001727

  Mayer bond orders larger than 0.100000
B(  0-Ru,  1-Cl) :   1.7088 B(  0-Ru,  2-Cl) :   1.6409 B(  0-Ru,  3-P ) :  -0.3847
B(  0-Ru,  4-C ) :   1.5322 B(  0-Ru,  5-C ) :   0.2363 B(  0-Ru, 11-C ) :   0.2241
B(  0-Ru, 22-C ) :   0.2175 B(  0-Ru, 24-H ) :  -0.1094 B(  0-Ru, 57-C ) :  -0.3617
B(  0-Ru, 62-C ) :   0.1481 B(  1-Cl,  3-P ) :  -0.6248 B(  1-Cl, 11-C ) :   0.1078
B(  1-Cl, 36-H ) :   0.1597 B(  1-Cl, 57-C ) :  -0.2305 B(  2-Cl,  3-P ) :  -0.5388
B(  2-Cl,  4-C ) :  -0.2602 B(  2-Cl,  6-C ) :   0.1480 B(  3-P ,  5-C ) :   0.8541
B(  3-P ,  6-C ) :   0.1469 B(  3-P , 10-C ) :  -0.2717 B(  3-P , 11-C ) :   0.9967
B(  3-P , 12-C ) :   0.2981 B(  3-P , 17-C ) :   0.7197 B(  3-P , 23-H ) :  -0.1259
B(  3-P , 24-H ) :   0.2296 B(  3-P , 26-H ) :   0.1194 B(  3-P , 46-H ) :   0.1258
B(  3-P , 48-H ) :   0.1078 B(  3-P , 55-H ) :   0.1215 B(  4-C , 23-H ) :   0.9902
B(  4-C , 57-C ) :   0.3375 B(  4-C , 58-C ) :  -0.2372 B(  4-C , 59-C ) :  -0.1038
B(  4-C , 61-C ) :  -0.1140 B(  4-C , 62-C ) :   0.1036 B(  5-C ,  6-C ) :   0.1057
B(  5-C ,  7-C ) :   0.1449 B(  5-C ,  8-C ) :   0.1505 B(  5-C ,  9-C ) :   0.1362
B(  5-C , 11-C ) :   0.1197 B(  5-C , 18-C ) :   0.2295 B(  5-C , 24-H ) :   0.3296
B(  5-C , 25-H ) :  -0.1632 B(  5-C , 26-H ) :  -0.1363 B(  5-C , 33-H ) :  -0.2876
B(  5-C , 34-H ) :  -0.2832 B(  6-C ,  7-C ) :   0.5487 B(  6-C ,  8-C ) :   0.1303
B(  6-C , 10-C ) :  -0.1233 B(  6-C , 17-C ) :   0.2890 B(  6-C , 24-H ) :  -0.1096
B(  6-C , 25-H ) :   1.0489 B(  6-C , 26-H ) :   0.8164 B(  6-C , 28-H ) :  -0.1152
B(  7-C ,  8-C ) :   0.5217 B(  7-C ,  9-C ) :   0.1320 B(  7-C , 26-H ) :   0.1217
B(  7-C , 27-H ) :   0.9099 B(  7-C , 28-H ) :   1.0111 B(  8-C ,  9-C ) :   0.5220
B(  8-C , 10-C ) :   0.1301 B(  8-C , 29-H ) :   1.0422 B(  8-C , 30-H ) :   0.9229
B(  9-C , 10-C ) :   0.1484 B(  9-C , 31-H ) :   0.8761 B(  9-C , 32-H ) :   1.0358
B(  9-C , 33-H ) :   0.3163 B( 10-C , 17-C ) :   0.1162 B( 10-C , 24-H ) :  -0.1049
B( 10-C , 32-H ) :  -0.1761 B( 10-C , 33-H ) :   1.1119 B( 10-C , 34-H ) :   1.1882
B( 11-C , 12-C ) :  -0.3644 B( 11-C , 13-C ) :   0.1663 B( 11-C , 15-C ) :   0.1126
B( 11-C , 16-C ) :   0.4758 B( 11-C , 17-C ) :   0.1789 B( 11-C , 35-H ) :   0.1276
B( 11-C , 36-H ) :  -0.2109 B( 11-C , 37-H ) :  -0.3054 B( 11-C , 44-H ) :  -0.2202
B( 11-C , 45-H ) :  -0.2596 B( 12-C , 13-C ) :   0.4616 B( 12-C , 14-C ) :   0.1440
B( 12-C , 16-C ) :  -0.2412 B( 12-C , 36-H ) :   0.9330 B( 12-C , 37-H ) :   1.2299
B( 12-C , 38-H ) :  -0.1431 B( 13-C , 14-C ) :   0.5397 B( 13-C , 36-H ) :   0.2043
B( 13-C , 38-H ) :   1.0177 B( 13-C , 39-H ) :   0.9475 B( 14-C , 15-C ) :   0.5501
B( 14-C , 40-H ) :   0.9392 B( 14-C , 41-H ) :   1.0472 B( 15-C , 16-C ) :   0.4869
B( 15-C , 42-H ) :   0.9769 B( 15-C , 43-H ) :   0.9390 B( 15-C , 45-H ) :   0.1606
B( 16-C , 35-H ) :  -0.1756 B( 16-C , 44-H ) :   1.1782 B( 16-C , 45-H ) :   1.1005
B( 17-C , 18-C ) :   0.1867 B( 17-C , 20-C ) :   0.1019 B( 17-C , 21-C ) :   0.1193
B( 17-C , 22-C ) :   0.1400 B( 17-C , 46-H ) :   0.5887 B( 17-C , 47-H ) :  -0.2395
B( 17-C , 48-H ) :  -0.1801 B( 17-C , 56-H ) :  -0.2646 B( 18-C , 19-C ) :   0.2871
B( 18-C , 20-C ) :   0.1915 B( 18-C , 46-H ) :  -0.1934 B( 18-C , 47-H ) :   1.0886
B( 18-C , 48-H ) :   1.0809 B( 18-C , 50-H ) :  -0.1345 B( 19-C , 20-C ) :   0.5303
B( 19-C , 21-C ) :   0.1064 B( 19-C , 48-H ) :   0.2551 B( 19-C , 49-H ) :   0.9390
B( 19-C , 50-H ) :   0.9604 B( 20-C , 21-C ) :   0.5359 B( 20-C , 22-C ) :   0.1402
B( 20-C , 51-H ) :   1.0286 B( 20-C , 52-H ) :   0.9338 B( 21-C , 22-C ) :   0.6044
B( 21-C , 53-H ) :   0.9498 B( 21-C , 54-H ) :   1.0061 B( 21-C , 55-H ) :   0.1026
B( 22-C , 54-H ) :  -0.1076 B( 22-C , 55-H ) :   0.7291 B( 22-C , 56-H ) :   1.2046
B( 25-H , 26-H ) :   0.1052 B( 33-H , 34-H ) :   0.1161 B( 36-H , 37-H ) :   0.1116
B( 47-H , 48-H ) :   0.1062 B( 57-C , 58-C ) :   1.0859 B( 57-C , 62-C ) :   0.2262
B( 57-C , 63-H ) :  -0.2041 B( 57-C , 66-H ) :  -0.4526 B( 58-C , 59-C ) :   1.1633
B( 58-C , 62-C ) :  -0.1634 B( 58-C , 63-H ) :   1.1136 B( 59-C , 60-C ) :   1.0438
B( 59-C , 64-H ) :   1.0841 B( 60-C , 61-C ) :   1.0337 B( 60-C , 67-H ) :   1.0775
B( 61-C , 62-C ) :   1.4579 B( 61-C , 65-H ) :   1.0610 B( 62-C , 66-H ) :   1.2410

FINAL SINGLE POINT ENERGY     -2332.742002943752

DIPOLE MOMENT
-------------
                                X             Y             Z
Electronic contribution:     94.59638     -73.83325     -66.26864
Nuclear contribution   :    -95.45400      75.19378      67.48059
                        -----------------------------------------
Total Dipole Moment    :     -0.85762       1.36052       1.21195
                        -----------------------------------------
Magnitude (a.u.)       :      2.01379
Magnitude (Debye)      :      5.11864

Rotational constants in cm-1:     0.004948     0.003136     0.003087
Rotational constants in MHz :   148.341837    94.004802    92.554473

                             ****ORCA TERMINATED NORMALLY****
TOTAL RUN TIME: 0 days 2 hours 33 minutes 34 seconds 341 msec
