                         Program Version 4.2.0 -  RELEASE  -
|  1> #
|  2> # MOR17_ed36 wB97M-V/Def2-TZVPPD
|  3> #
|  4> ! wb97m-v def2-tzvppd def2/jk grid4 nofinalgrid
|  5>
|  6> *xyz 0 1
|  7> Mo      -0.000266    0.073285   -0.001759
|  8> C        1.725893   -0.773990   -1.226681
|  9> C        2.211696    0.414668   -0.610995
| 10> C        2.192326    0.250811    0.809261
| 11> C        1.685230   -1.035926    1.105715
| 12> C        1.413513   -1.680058   -0.153190
| 13> H        1.704188   -0.987838   -2.284881
| 14> H        2.536107    1.301869   -1.133102
| 15> H        2.493190    0.988099    1.537778
| 16> H        1.573828   -1.467340    2.089978
| 17> H        1.067801   -2.694661   -0.276651
| 18> C       -1.407221   -1.685804    0.112781
| 19> C       -1.709531   -0.814976    1.218351
| 20> C       -2.202710    0.272498   -0.775202
| 21> C       -1.695077   -1.002456   -1.122045
| 22> H       -1.669608   -1.061100    2.269076
| 23> H       -2.528690    1.258371    1.205067
| 24> C       -2.207491    0.390536    0.649493
| 25> H       -1.601566   -1.403288   -2.120864
| 26> H       -1.058155   -2.702954    0.200059
| 27> C        0.040880    2.214506    0.720862
| 28> H        0.978366    2.504794    1.184780
| 29> H       -0.817411    2.527371    1.307308
| 30> C       -0.044841    2.215313   -0.718681
| 31> H        0.814149    2.526211   -1.305102
| 32> H       -0.980875    2.509977   -1.182445
| 33> H       -2.516160    1.031799   -1.475134
| 34> *
| 35>
| 36> %maxcore 5000
| 37>
| 38> %pal
| 39> nprocs = 24
| 40> end
| 41>
| 42>
| 43>                          ****END OF INPUT****

CARTESIAN COORDINATES (ANGSTROEM)
---------------------------------
  Mo    -0.000266    0.073285   -0.001759
  C      1.725893   -0.773990   -1.226681
  C      2.211696    0.414668   -0.610995
  C      2.192326    0.250811    0.809261
  C      1.685230   -1.035926    1.105715
  C      1.413513   -1.680058   -0.153190
  H      1.704188   -0.987838   -2.284881
  H      2.536107    1.301869   -1.133102
  H      2.493190    0.988099    1.537778
  H      1.573828   -1.467340    2.089978
  H      1.067801   -2.694661   -0.276651
  C     -1.407221   -1.685804    0.112781
  C     -1.709531   -0.814976    1.218351
  C     -2.202710    0.272498   -0.775202
  C     -1.695077   -1.002456   -1.122045
  H     -1.669608   -1.061100    2.269076
  H     -2.528690    1.258371    1.205067
  C     -2.207491    0.390536    0.649493
  H     -1.601566   -1.403288   -2.120864
  H     -1.058155   -2.702954    0.200059
  C      0.040880    2.214506    0.720862
  H      0.978366    2.504794    1.184780
  H     -0.817411    2.527371    1.307308
  C     -0.044841    2.215313   -0.718681
  H      0.814149    2.526211   -1.305102
  H     -0.980875    2.509977   -1.182445
  H     -2.516160    1.031799   -1.475134

 Total Charge           Charge          ....    0
 Multiplicity           Mult            ....    1
 Number of Electrons    NEL             ....  100
 Basis Dimension        Dim             ....  738

ORBITAL ENERGIES
----------------

  NO   OCC          E(Eh)            E(eV)
   0   2.0000     -10.361228      -281.9433
   1   2.0000     -10.361149      -281.9412
   2   2.0000     -10.361146      -281.9411
   3   2.0000     -10.361017      -281.9376
   4   2.0000     -10.360249      -281.9167
   5   2.0000     -10.359650      -281.9004
   6   2.0000     -10.359492      -281.8961
   7   2.0000     -10.359431      -281.8945
   8   2.0000     -10.357230      -281.8345
   9   2.0000     -10.356815      -281.8233
  10   2.0000     -10.317845      -280.7628
  11   2.0000     -10.317375      -280.7500
  12   2.0000      -2.674913       -72.7881
  13   2.0000      -1.692648       -46.0593
  14   2.0000      -1.672596       -45.5136
  15   2.0000      -1.644841       -44.7584
  16   2.0000      -1.017332       -27.6830
  17   2.0000      -1.000154       -27.2156
  18   2.0000      -0.853006       -23.2115
  19   2.0000      -0.841059       -22.8864
  20   2.0000      -0.837994       -22.8030
  21   2.0000      -0.837717       -22.7954
  22   2.0000      -0.833903       -22.6917
  23   2.0000      -0.688334       -18.7305
  24   2.0000      -0.672263       -18.2932
  25   2.0000      -0.658024       -17.9057
  26   2.0000      -0.656584       -17.8666
  27   2.0000      -0.654654       -17.8140
  28   2.0000      -0.652800       -17.7636
  29   2.0000      -0.642301       -17.4779
  30   2.0000      -0.544976       -14.8295
  31   2.0000      -0.529884       -14.4189
  32   2.0000      -0.515875       -14.0377
  33   2.0000      -0.510539       -13.8925
  34   2.0000      -0.508769       -13.8443
  35   2.0000      -0.503902       -13.7119
  36   2.0000      -0.503067       -13.6892
  37   2.0000      -0.486981       -13.2514
  38   2.0000      -0.485867       -13.2211
  39   2.0000      -0.483226       -13.1493
  40   2.0000      -0.479811       -13.0563
  41   2.0000      -0.467033       -12.7086
  42   2.0000      -0.431382       -11.7385
  43   2.0000      -0.367715       -10.0060
  44   2.0000      -0.364798        -9.9267
  45   2.0000      -0.361925        -9.8485
  46   2.0000      -0.347398        -9.4532
  47   2.0000      -0.345470        -9.4007
  48   2.0000      -0.276752        -7.5308
  49   2.0000      -0.253070        -6.8864
  50   0.0000       0.034664         0.9432
  51   0.0000       0.043831         1.1927
  52   0.0000       0.045314         1.2331
  53   0.0000       0.046172         1.2564
  54   0.0000       0.062922         1.7122

MULLIKEN ATOMIC CHARGES
-----------------------
   0 Mo:   -0.903990
   1 C :    0.237530
   2 C :   -0.686469
   3 C :   -0.424539
   4 C :    0.246231
   5 C :   -0.676562
   6 H :    0.178521
   7 H :    0.447489
   8 H :    0.326672
   9 H :    0.243127
  10 H :    0.496561
  11 C :   -0.676010
  12 C :    0.210422
  13 C :   -0.453974
  14 C :    0.259383
  15 H :    0.179673
  16 H :    0.443054
  17 C :   -0.665757
  18 H :    0.232849
  19 H :    0.503408
  20 C :   -0.329585
  21 H :    0.207000
  22 H :    0.211706
  23 C :   -0.371007
  24 H :    0.201606
  25 H :    0.212637
  26 H :    0.350024
Sum of atomic charges:    0.0000000

LOEWDIN ATOMIC CHARGES
----------------------
   0 Mo:    1.053810
   1 C :   -0.063930
   2 C :   -0.081673
   3 C :   -0.072116
   4 C :   -0.059521
   5 C :   -0.090965
   6 H :   -0.000177
   7 H :    0.002633
   8 H :    0.002365
   9 H :    0.004596
  10 H :   -0.003665
  11 C :   -0.091315
  12 C :   -0.064382
  13 C :   -0.073238
  14 C :   -0.059573
  15 H :    0.000263
  16 H :    0.002568
  17 C :   -0.079437
  18 H :    0.003872
  19 H :   -0.003850
  20 C :   -0.032237
  21 H :   -0.065185
  22 H :   -0.065703
  23 C :   -0.033374
  24 H :   -0.066050
  25 H :   -0.065814
  26 H :    0.002101

  Mayer bond orders larger than 0.100000
B(  0-Mo,  1-C ) :  -0.1017 B(  0-Mo,  2-C ) :   0.9150 B(  0-Mo,  3-C ) :   0.4874
B(  0-Mo,  5-C ) :   0.9910 B(  0-Mo, 11-C ) :   0.9994 B(  0-Mo, 13-C ) :   0.5375
B(  0-Mo, 17-C ) :   0.8724 B(  0-Mo, 20-C ) :   0.7015 B(  0-Mo, 23-C ) :   0.7163
B(  1-C ,  2-C ) :   0.8188 B(  1-C ,  3-C ) :  -0.1593 B(  1-C ,  5-C ) :   0.8265
B(  1-C ,  6-H ) :   1.0520 B(  1-C , 11-C ) :  -0.1560 B(  1-C , 12-C ) :   0.2615
B(  1-C , 14-C ) :   0.2649 B(  1-C , 17-C ) :  -0.2739 B(  2-C ,  3-C ) :   0.9864
B(  2-C ,  4-C ) :  -0.1117 B(  2-C ,  7-H ) :   0.7954 B(  2-C , 11-C ) :   0.1383
B(  2-C , 12-C ) :  -0.2932 B(  2-C , 14-C ) :  -0.1359 B(  2-C , 17-C ) :   0.1853
B(  2-C , 20-C ) :  -0.1358 B(  2-C , 23-C ) :   0.1371 B(  3-C ,  4-C ) :   0.8399
B(  3-C ,  8-H ) :   0.9229 B(  3-C , 20-C ) :   0.1228 B(  3-C , 23-C ) :  -0.1312
B(  4-C ,  5-C ) :   0.8754 B(  4-C ,  9-H ) :   0.9774 B(  4-C , 11-C ) :  -0.1702
B(  4-C , 12-C ) :   0.2418 B(  4-C , 14-C ) :   0.1796 B(  4-C , 17-C ) :  -0.1135
B(  4-C , 20-C ) :   0.1053 B(  5-C , 10-H ) :   0.7401 B(  5-C , 11-C ) :   0.3437
B(  5-C , 12-C ) :  -0.1527 B(  5-C , 14-C ) :  -0.1710 B(  5-C , 17-C ) :   0.1248
B( 11-C , 12-C ) :   0.8423 B( 11-C , 14-C ) :   0.8635 B( 11-C , 19-H ) :   0.7340
B( 12-C , 13-C ) :  -0.1702 B( 12-C , 15-H ) :   1.0501 B( 12-C , 17-C ) :   0.8388
B( 13-C , 14-C ) :   0.8291 B( 13-C , 17-C ) :   0.9952 B( 13-C , 20-C ) :  -0.1335
B( 13-C , 23-C ) :   0.1282 B( 13-C , 26-H ) :   0.9034 B( 14-C , 17-C ) :  -0.1066
B( 14-C , 18-H ) :   0.9885 B( 14-C , 23-C ) :   0.1016 B( 16-H , 17-C ) :   0.7967
B( 17-C , 20-C ) :   0.1369 B( 17-C , 23-C ) :  -0.1273 B( 20-C , 21-H ) :   1.0898
B( 20-C , 22-H ) :   1.0752 B( 20-C , 23-C ) :   0.4305 B( 23-C , 24-H ) :   1.0924
B( 23-C , 25-H ) :   1.0809

FINAL SINGLE POINT ENERGY      -533.816065801421

DIPOLE MOMENT
-------------
                                X             Y             Z
Electronic contribution:     -0.01314       0.80270      -0.10955
Nuclear contribution   :      0.01285      -1.32377       0.12031
                        -----------------------------------------
Total Dipole Moment    :     -0.00029      -0.52106       0.01076
                        -----------------------------------------
Magnitude (a.u.)       :      0.52117
Magnitude (Debye)      :      1.32472

Rotational constants in cm-1:     0.040116     0.028148     0.022583
Rotational constants in MHz :  1202.641010   843.851559   677.032187

                             ****ORCA TERMINATED NORMALLY****
TOTAL RUN TIME: 0 days 0 hours 13 minutes 22 seconds 403 msec
