                         Program Version 4.2.0 -  RELEASE  -
|  1> #
|  2> # MOR15_ed28 wB97M-V/Def2-TZVPPD
|  3> #
|  4> ! wb97m-v def2-tzvppd def2/jk grid4 nofinalgrid
|  5>
|  6> *xyz 0 1
|  7> P        2.231289   -0.430274   -0.463190
|  8> P       -2.231227    0.430230   -0.463237
|  9> C        0.601806    0.475539   -0.398801
| 10> C       -0.601746   -0.475582   -0.398812
| 11> H        0.558406    1.125089   -1.282007
| 12> H        0.584231    1.127683    0.485308
| 13> H       -0.558397   -1.125071   -1.282069
| 14> H       -0.584133   -1.127767    0.485258
| 15> C       -2.297387    1.057835    1.283006
| 16> H       -3.294023    1.464895    1.482076
| 17> H       -1.575039    1.869076    1.414857
| 18> H       -2.084239    0.266904    2.013068
| 19> C       -3.365229   -1.028103   -0.282748
| 20> H       -3.089031   -1.663694    0.567640
| 21> H       -3.336618   -1.627593   -1.198231
| 22> H       -4.392612   -0.676718   -0.143291
| 23> C        3.365219    1.028123   -0.282780
| 24> H        4.392633    0.676869   -0.143242
| 25> H        3.088901    1.663766    0.567523
| 26> H        3.336575    1.627522   -1.198328
| 27> C        2.297280   -1.057763    1.283073
| 28> H        1.574883   -1.868971    1.414841
| 29> H        2.084009   -0.266765    2.013028
| 30> H        3.293857   -1.464863    1.482348
| 31> *
| 32>
| 33> %maxcore 5000
| 34>
| 35> %pal
| 36> nprocs = 24
| 37> end
| 38>
| 39>
| 40>                          ****END OF INPUT****

CARTESIAN COORDINATES (ANGSTROEM)
---------------------------------
  P      2.231289   -0.430274   -0.463190
  P     -2.231227    0.430230   -0.463237
  C      0.601806    0.475539   -0.398801
  C     -0.601746   -0.475582   -0.398812
  H      0.558406    1.125089   -1.282007
  H      0.584231    1.127683    0.485308
  H     -0.558397   -1.125071   -1.282069
  H     -0.584133   -1.127767    0.485258
  C     -2.297387    1.057835    1.283006
  H     -3.294023    1.464895    1.482076
  H     -1.575039    1.869076    1.414857
  H     -2.084239    0.266904    2.013068
  C     -3.365229   -1.028103   -0.282748
  H     -3.089031   -1.663694    0.567640
  H     -3.336618   -1.627593   -1.198231
  H     -4.392612   -0.676718   -0.143291
  C      3.365219    1.028123   -0.282780
  H      4.392633    0.676869   -0.143242
  H      3.088901    1.663766    0.567523
  H      3.336575    1.627522   -1.198328
  C      2.297280   -1.057763    1.283073
  H      1.574883   -1.868971    1.414841
  H      2.084009   -0.266765    2.013028
  H      3.293857   -1.464863    1.482348

 Total Charge           Charge          ....    0
 Multiplicity           Mult            ....    1
 Number of Electrons    NEL             ....   82
 Basis Dimension        Dim             ....  590

ORBITAL ENERGIES
----------------

  NO   OCC          E(Eh)            E(eV)
   0   2.0000     -77.360632     -2105.0898
   1   2.0000     -77.360630     -2105.0898
   2   2.0000     -10.348174      -281.5881
   3   2.0000     -10.348015      -281.5838
   4   2.0000     -10.339251      -281.3453
   5   2.0000     -10.339251      -281.3453
   6   2.0000     -10.338870      -281.3349
   7   2.0000     -10.338869      -281.3349
   8   2.0000      -6.708396      -182.5447
   9   2.0000      -6.708395      -182.5447
  10   2.0000      -4.821058      -131.1877
  11   2.0000      -4.821057      -131.1876
  12   2.0000      -4.820950      -131.1847
  13   2.0000      -4.820949      -131.1847
  14   2.0000      -4.816658      -131.0679
  15   2.0000      -4.816656      -131.0679
  16   2.0000      -0.912939       -24.8423
  17   2.0000      -0.872947       -23.7541
  18   2.0000      -0.840256       -22.8645
  19   2.0000      -0.808808       -22.0088
  20   2.0000      -0.808489       -22.0001
  21   2.0000      -0.745365       -20.2824
  22   2.0000      -0.646182       -17.5835
  23   2.0000      -0.638801       -17.3827
  24   2.0000      -0.573898       -15.6165
  25   2.0000      -0.540142       -14.6980
  26   2.0000      -0.535972       -14.5845
  27   2.0000      -0.533697       -14.5226
  28   2.0000      -0.528915       -14.3925
  29   2.0000      -0.503855       -13.7106
  30   2.0000      -0.501799       -13.6547
  31   2.0000      -0.501253       -13.6398
  32   2.0000      -0.500232       -13.6120
  33   2.0000      -0.475726       -12.9452
  34   2.0000      -0.464812       -12.6482
  35   2.0000      -0.454638       -12.3713
  36   2.0000      -0.419213       -11.4074
  37   2.0000      -0.416733       -11.3399
  38   2.0000      -0.382721       -10.4144
  39   2.0000      -0.319786        -8.7018
  40   2.0000      -0.316753        -8.6193
  41   0.0000       0.037644         1.0243
  42   0.0000       0.045687         1.2432
  43   0.0000       0.051277         1.3953
  44   0.0000       0.055217         1.5025
  45   0.0000       0.065519         1.7829

MULLIKEN ATOMIC CHARGES
-----------------------
   0 P :    0.013083
   1 P :    0.013077
   2 C :   -0.624534
   3 C :   -0.624523
   4 H :    0.372960
   5 H :    0.301907
   6 H :    0.372818
   7 H :    0.302115
   8 C :   -0.918015
   9 H :    0.329795
  10 H :    0.256076
  11 H :    0.290562
  12 C :   -0.943299
  13 H :    0.306644
  14 H :    0.304503
  15 H :    0.310256
  16 C :   -0.943179
  17 H :    0.310239
  18 H :    0.306642
  19 H :    0.304449
  20 C :   -0.917900
  21 H :    0.255982
  22 H :    0.290590
  23 H :    0.329751
Sum of atomic charges:   -0.0000000

LOEWDIN ATOMIC CHARGES
----------------------
   0 P :    0.920856
   1 P :    0.920863
   2 C :   -0.304930
   3 C :   -0.304927
   4 H :   -0.032702
   5 H :   -0.036922
   6 H :   -0.032704
   7 H :   -0.036924
   8 C :   -0.082502
   9 H :   -0.064232
  10 H :   -0.070898
  11 H :   -0.053906
  12 C :   -0.088484
  13 H :   -0.057319
  14 H :   -0.064323
  15 H :   -0.064643
  16 C :   -0.088479
  17 H :   -0.064642
  18 H :   -0.057326
  19 H :   -0.064318
  20 C :   -0.082510
  21 H :   -0.070902
  22 H :   -0.053903
  23 H :   -0.064225

  Mayer bond orders larger than 0.100000
B(  0-P ,  2-C ) :   0.7498 B(  0-P ,  3-C ) :   0.1714 B(  0-P , 16-C ) :   0.8308
B(  0-P , 20-C ) :   0.8145 B(  1-P ,  2-C ) :   0.1716 B(  1-P ,  3-C ) :   0.7497
B(  1-P ,  8-C ) :   0.8143 B(  1-P , 12-C ) :   0.8309 B(  2-C ,  3-C ) :   0.5660
B(  2-C ,  4-H ) :   0.8883 B(  2-C ,  5-H ) :   0.8790 B(  3-C ,  6-H ) :   0.8886
B(  3-C ,  7-H ) :   0.8789 B(  4-H ,  5-H ) :   0.1712 B(  6-H ,  7-H ) :   0.1711
B(  8-C ,  9-H ) :   0.9230 B(  8-C , 10-H ) :   0.9547 B(  8-C , 11-H ) :   0.9087
B( 12-C , 13-H ) :   0.8860 B( 12-C , 14-H ) :   0.9453 B( 12-C , 15-H ) :   0.9422
B( 16-C , 17-H ) :   0.9422 B( 16-C , 18-H ) :   0.8860 B( 16-C , 19-H ) :   0.9453
B( 20-C , 21-H ) :   0.9547 B( 20-C , 22-H ) :   0.9087 B( 20-C , 23-H ) :   0.9230

FINAL SINGLE POINT ENERGY      -920.917033316915

DIPOLE MOMENT
-------------
                                X             Y             Z
Electronic contribution:      0.00066      -0.00041      -7.08489
Nuclear contribution   :     -0.00067       0.00041       7.75547
                        -----------------------------------------
Total Dipole Moment    :     -0.00001       0.00000       0.67058
                        -----------------------------------------
Magnitude (a.u.)       :      0.67058
Magnitude (Debye)      :      1.70448

Rotational constants in cm-1:     0.093884     0.018404     0.018105
Rotational constants in MHz :  2814.581921   551.745538   542.775536

                             ****ORCA TERMINATED NORMALLY****
TOTAL RUN TIME: 0 days 0 hours 2 minutes 30 seconds 683 msec
