                         Program Version 4.2.0 -  RELEASE  -
|  1> # input to generate an atomic fitting density for Ru
|  2> # this file is use internally by ORCA
|  3> #
|  4> # atomic ground state (S=5): 1s2 2s2 2p6 3s2 3p6 4s2 3d10 4p6 5s2 4d6
|  5> #
|  6> ! RHF AllowRHF def2-SVP def2/J  NoMulliken NoLoewdin NoMayer NoPrintMOs
|  7>
|  8> %output print[p_atomdensfit] 2 end
|  9>
| 10> %scf
| 11>   guess hcore
| 12>   maxiter 1000
| 13>   maxdisk 500000
| 14>   SCFMode Conventional
| 15>   lshift 1.000000
| 16>   hftyp rohf
| 17>   rohf_case sahf
| 18>   rohf_numop   2
| 19>   rohf_norb[1] 5
| 20>   rohf_nel[1]  6
| 21> end
| 22>
| 23> %basis
| 24>   NewECP 44
| 25>     N_core 28
| 26>     lmax f
| 27>     s 4
| 28>       1      11.1052693000    209.8229712000  2
| 29>       2       5.4147454000     30.6547264000  2
| 30>       3      11.3600000000     28.3406163000  2
| 31>       4       5.6800000000      4.9446292000  2
| 32>     p 4
| 33>       1       9.7712707000    146.3361823000  2
| 34>       2       5.0739908000     24.1278772000  2
| 35>       3      11.3600000000     28.3406163000  2
| 36>       4       5.6800000000      4.9446292000  2
| 37>     d 4
| 38>       1       7.6714231000     67.5158967000  2
| 39>       2       4.1365647000      9.8701041000  2
| 40>       3      11.3600000000     28.3406163000  2
| 41>       4       5.6800000000      4.9446292000  2
| 42>     f 2
| 43>       1      11.3600000000    -28.3406163000  2
| 44>       2       5.6800000000     -4.9446292000  2
| 45>   end
| 46>   NewGTO 44
| 47>     s 2
| 48>      1      16.0000000000     -1.5737642279
| 49>      2      13.9105816940      2.5589062345
| 50>     s 1
| 51>      1       4.7967971407      1.0000000000
| 52>     s 1
| 53>      1       1.1555425594      1.0000000000
| 54>     s 1
| 55>      1       0.5245574118      1.0000000000
| 56>     s 1
| 57>      1       0.1073457265      1.0000000000
| 58>     s 1
| 59>      1       0.0394327602      1.0000000000
| 60>     p 4
| 61>      1      11.1872086710      0.0614129072
| 62>      2       6.2477688734     -0.2622856795
| 63>      3       1.6279472859      0.5523344774
| 64>      4       0.7932649354      0.5793783366
| 65>     p 1
| 66>      1       0.3670727686      1.0000000000
| 67>     p 1
| 68>      1       0.1150000000      1.0000000000
| 69>     p 1
| 70>      1       0.0370000000      1.0000000000
| 71>     d 3
| 72>      1       5.7341846619     -0.0576319015
| 73>      2       2.2483686294      0.3562966266
| 74>      3       0.9837697836      0.7306439889
| 75>     d 1
| 76>      1       0.4037944558      1.0000000000
| 77>     d 1
| 78>      1       0.1497861817      1.0000000000
| 79>   end
| 80>   NewAuxGTO 44
| 81>     S 1
| 82>      1 1310.72 1.0
| 83>     S 1
| 84>      1  655.36 1.0
| 85>     S 1
| 86>      1  327.68 1.0
| 87>     S 1
| 88>      1  163.84 1.0
| 89>     S 1
| 90>      1   81.82 1.0
| 91>     S 1
| 92>      1   40.96 1.0
| 93>     S 1
| 94>      1   20.48 1.0
| 95>     S 1
| 96>      1   10.24 1.0
| 97>     S 1
| 98>      1    5.12 1.0
| 99>     S 1
|100>      1    2.56 1.0
|101>     S 1
|102>      1    1.28 1.0
|103>     S 1
|104>      1    0.64 1.0
|105>     S 1
|106>      1    0.32 1.0
|107>     S 1
|108>      1    0.16 1.0
|109>     S 1
|110>      1    0.08 1.0
|111>     S 1
|112>      1    0.04 1.0
|113>     S 1
|114>      1    0.02 1.0
|115>     S 1
|116>      1    0.01 1.0
|117>   end
|118> end
|119>
|120> * xyz 0 5
|121> 44  0.0 0.0 0.0
|122> *
|123>
|124>
|125>                          ****END OF INPUT****

CARTESIAN COORDINATES (ANGSTROEM)
---------------------------------
  Ru     0.000000    0.000000    0.000000

 Total Charge           Charge          ....    0
 Multiplicity           Mult            ....    5
 Number of Electrons    NEL             ....   16
 Basis Dimension        Dim             ....   33

ORBITAL ENERGIES
----------------

  NO   OCC          E(Eh)            E(eV)
   0   2.0000      -3.516258       -95.6822
   1   2.0000      -2.213190       -60.2240
   2   2.0000      -2.206215       -60.0342
   3   2.0000      -2.203494       -59.9601
   4   2.0000      -0.370181       -10.0731
   5   1.2000      -0.436814       -11.8863
   6   1.2000      -0.432726       -11.7751
   7   1.2000      -0.426329       -11.6010
   8   1.2000      -0.409831       -11.1521
   9   1.2000      -0.246164        -6.6985
  10   0.0000       0.011141         0.3032
  11   0.0000       0.015285         0.4159
  12   0.0000       0.016860         0.4588
  13   0.0000       0.161086         4.3834
  14   0.0000       0.217875         5.9287

CleanUpVectors: The p-vectors have cracked symmetry
CleanUpVectors: The p-vectors have cracked symmetry
CleanUpVectors: The p-vectors have cracked symmetry
CleanUpVectors: The d-vectors have cracked symmetry at i=4
CleanUpVectors: The d-vectors have cracked symmetry at i=5
CleanUpVectors: The d-vectors have cracked symmetry at i=6
CleanUpVectors: The d-vectors have cracked symmetry at i=7
CleanUpVectors: The d-vectors have cracked symmetry at i=8
CleanUpVectors: The p-vectors have cracked symmetry
CleanUpVectors: The p-vectors have cracked symmetry
CleanUpVectors: The p-vectors have cracked symmetry
CleanUpVectors: The p-vectors have cracked symmetry
CleanUpVectors: The p-vectors have cracked symmetry
CleanUpVectors: The p-vectors have cracked symmetry
CleanUpVectors: The d-vectors have cracked symmetry at i=17
CleanUpVectors: The d-vectors have cracked symmetry at i=18
CleanUpVectors: The d-vectors have cracked symmetry at i=19
CleanUpVectors: The d-vectors have cracked symmetry at i=20
CleanUpVectors: The d-vectors have cracked symmetry at i=21
CleanUpVectors: The p-vectors have cracked symmetry
CleanUpVectors: The p-vectors have cracked symmetry
CleanUpVectors: The p-vectors have cracked symmetry
CleanUpVectors: The d-vectors have cracked symmetry at i=26
CleanUpVectors: The d-vectors have cracked symmetry at i=27
CleanUpVectors: The d-vectors have cracked symmetry at i=28
--------------------------
ATOM BASIS FOR ELEMENT Ru
--------------------------
 NewGTO Ru
 S 7
    1         16.000000000000        -0.243578908604
    2         13.910581694000         0.396053981131
    3          4.796797140700        -0.651943346906
    4          1.155542559400         0.848519183384
    5          0.524557411800         0.452973351260
    6          0.107345726500         0.015915106239
    7          0.039432760200        -0.003965220445
 P 19
    1         11.187208671000        -0.034397165777
    2          6.247768873400         0.146905339775
    3          1.627947285900        -0.309360710148
    4          0.793264935400        -0.324507886052
    5         11.187208671000        -0.039504200767
    6          6.247768873400         0.168716750497
    7          1.627947285900        -0.355292284321
    8          0.793264935400        -0.372688400090
    9         11.187208671000         0.006191534698
   10          6.247768873400        -0.026443152740
   11          1.627947285900         0.055685331266
   12          0.793264935400         0.058411842683
   13          0.367072768600        -0.114623256831
   14          0.367072768600        -0.131641664309
   15          0.367072768600         0.020632335711
   16          0.115000000000        -0.006416657454
   17          0.115000000000        -0.007369354963
   18          0.115000000000         0.001155006710
   19          0.037000000000         0.000503315067
 D 19
    1         16.000000000000         0.000013166938
    2         13.910581694000        -0.000024624884
    3          4.796797140700         0.000126444148
    4          1.155542559400        -0.001138124883
    5          0.524557411800         0.000443858154
    6          0.107345726500         0.010402930590
    7          0.039432760200        -0.024028280596
    8          5.734184661900        -0.007564284889
    9          2.248368629400         0.046764536973
   10          0.983769783600         0.095898263644
   11          5.734184661900        -0.000546446326
   12          2.248368629400         0.003378284900
   13          0.983769783600         0.006927720811
   14          5.734184661900        -0.022710622879
   15          2.248368629400         0.140403459004
   16          0.983769783600         0.287920052237
   17          5.734184661900        -0.005689660310
   18          2.248368629400         0.035175080508
   19          0.983769783600         0.072132204499
 D 19
    1          5.734184661900        -0.024319801023
    2          2.248368629400         0.150351850949
    3          0.983769783600         0.308320842564
    4          5.734184661900        -0.006015644712
    5          2.248368629400         0.037190407776
    6          0.983769783600         0.076264959749
    7          5.734184661900        -0.010971726614
    8          2.248368629400         0.067830300212
    9          0.983769783600         0.139097025947
   10          5.734184661900         0.009181320656
   11          2.248368629400        -0.056761506950
   12          0.983769783600        -0.116398671102
   13          5.734184661900        -0.017323216204
   14          2.248368629400         0.107096995497
   15          0.983769783600         0.219619749801
   16          0.403794455800         0.289644208088
   17          0.403794455800         0.071645185216
   18          0.403794455800         0.130671178739
   19          0.403794455800        -0.109347784060
 P 19
    1         11.187208671000         0.003229466122
    2          6.247768873400        -0.013792584568
    3          1.627947285900         0.029045123637
    4          0.793264935400         0.030467255092
    5         11.187208671000        -0.003782436702
    6          6.247768873400         0.016154242256
    7          1.627947285900        -0.034018422094
    8          0.793264935400        -0.035684060316
    9         11.187208671000        -0.006191947422
   10          6.247768873400         0.026444915429
   11          1.627947285900        -0.055689043226
   12          0.793264935400        -0.058415736390
   13          0.367072768600        -0.007436009871
   14          0.367072768600         0.008709252735
   15          0.367072768600         0.014257273624
   16          0.115000000000         0.018325846914
   17          0.115000000000        -0.021463719808
   18          0.115000000000        -0.035136668505
   19          0.037000000000        -0.418473894796
 P 19
    1         11.187208671000         0.005892701573
    2          6.247768873400        -0.025166879516
    3          1.627947285900         0.052997690425
    4          0.793264935400         0.055592607340
    5         11.187208671000        -0.006901688968
    6          6.247768873400         0.029476119325
    7          1.627947285900        -0.062072306023
    8          0.793264935400        -0.065111541799
    9         11.187208671000        -0.011298244646
   10          6.247768873400         0.048253175256
   11          1.627947285900        -0.101613982086
   12          0.793264935400        -0.106589290231
   13          0.367072768600         0.135489605064
   14          0.367072768600        -0.158689032691
   15          0.367072768600        -0.259778080729
   16          0.115000000000        -0.672570245498
   17          0.115000000000         0.787732177865
   18          0.115000000000         1.289538097398
   19          0.037000000000         0.411114167409
 D 19
    1         16.000000000000         0.000016472007
    2         13.910581694000        -0.000030806043
    3          4.796797140700         0.000158323011
    4          1.155542559400        -0.001562992079
    5          0.524557411800         0.000767815215
    6          0.107345726500         0.014012242117
    7          0.039432760200        -0.005938218767
    8          5.734184661900        -0.003422422379
    9          2.248368629400         0.021158377856
   10          0.983769783600         0.043388683588
   11          5.734184661900        -0.000276275632
   12          2.248368629400         0.001708013669
   13          0.983769783600         0.003502558899
   14          5.734184661900        -0.010256317506
   15          2.248368629400         0.063407439868
   16          0.983769783600         0.130027233861
   17          5.734184661900        -0.002587113910
   18          2.248368629400         0.015994265932
   19          0.983769783600         0.032798834982
 P 19
    1         11.187208671000         0.035241304454
    2          6.247768873400        -0.150510534457
    3          1.627947285900         0.316952711833
    4          0.793264935400         0.332471613627
    5         11.187208671000        -0.041275554032
    6          6.247768873400         0.176281945109
    7          1.627947285900        -0.371223454564
    8          0.793264935400        -0.389399605516
    9         11.187208671000        -0.067569157272
   10          6.247768873400         0.288578136687
   11          1.627947285900        -0.607702466334
   12          0.793264935400        -0.637457298971
   13          0.367072768600        -0.920317200537
   14          0.367072768600         1.077900007551
   15          0.367072768600         1.764550394099
   16          0.115000000000         0.547588708091
   17          0.115000000000        -0.641350473773
   18          0.115000000000        -1.049907434200
   19          0.037000000000        -0.184710151247
 D 19
    1          5.734184661900         0.032231213836
    2          2.248368629400        -0.199262430391
    3          0.983769783600        -0.408619914166
    4          5.734184661900        -0.000423423692
    5          2.248368629400         0.002617724368
    6          0.983769783600         0.005368068152
    7          5.734184661900        -0.039028581023
    8          2.248368629400         0.241285666403
    9          0.983769783600         0.494795371618
   10          5.734184661900        -0.031453229716
   11          2.248368629400         0.194452713719
   12          0.983769783600         0.398756810469
   13          5.734184661900        -0.037053212277
   14          2.248368629400         0.229073381154
   15          0.983769783600         0.469752101092
   16          0.403794455800         0.755365127914
   17          0.403794455800        -0.009923284074
   18          0.403794455800        -0.914667044401
   19          0.403794455800        -0.737132427237
 end
  // -----------------------------------------------
  // The basis set
  // -----------------------------------------------
  BAS[ATNO] = new BFNGauss[NSH];
  // Basis function   1 L = s
  InitBFNGauss(BAS[ATNO][  0]);
  BAS[ATNO][  0].l  = 0;
  BAS[ATNO][  0].ng = 7;
  BAS[ATNO][  0].a[  0] =        16.000000000000;     BAS[ATNO][  0].d[  0] =        -0.243578908604;
  BAS[ATNO][  0].a[  1] =        13.910581694000;     BAS[ATNO][  0].d[  1] =         0.396053981131;
  BAS[ATNO][  0].a[  2] =         4.796797140700;     BAS[ATNO][  0].d[  2] =        -0.651943346906;
  BAS[ATNO][  0].a[  3] =         1.155542559400;     BAS[ATNO][  0].d[  3] =         0.848519183384;
  BAS[ATNO][  0].a[  4] =         0.524557411800;     BAS[ATNO][  0].d[  4] =         0.452973351260;
  BAS[ATNO][  0].a[  5] =         0.107345726500;     BAS[ATNO][  0].d[  5] =         0.015915106239;
  BAS[ATNO][  0].a[  6] =         0.039432760200;     BAS[ATNO][  0].d[  6] =        -0.003965220445;

FINAL SINGLE POINT ENERGY       -94.088788746033

DIPOLE MOMENT
-------------
                                X             Y             Z
Electronic contribution:      0.00000      -0.00000       0.00000
Nuclear contribution   :      0.00000       0.00000       0.00000
                        -----------------------------------------
Total Dipole Moment    :      0.00000      -0.00000       0.00000
                        -----------------------------------------
Magnitude (a.u.)       :      0.00000
Magnitude (Debye)      :      0.00000

Rotational constants in cm-1:     0.000000     0.000000     0.000000
Rotational constants in MHz :     0.000000     0.000000     0.000000

                             ****ORCA TERMINATED NORMALLY****
TOTAL RUN TIME: 0 days 0 hours 0 minutes 1 seconds 13 msec
