                         Program Version 4.2.0 -  RELEASE  -
|  1> #
|  2> # MOR14_ed26 wB97M-V/Def2-TZVPPD
|  3> #
|  4> ! wb97m-v def2-tzvppd def2/jk grid4 nofinalgrid
|  5>
|  6> *xyz 0 1
|  7> Ru      -0.064344   -0.175682   -0.012222
|  8> C        1.546320    1.136494   -0.983353
|  9> C        1.182588    1.622095    0.326342
| 10> C        2.076803   -0.497674    0.579629
| 11> C        2.043947   -0.183601   -0.846926
| 12> C        1.561141    0.611266    1.297590
| 13> C        1.492783    1.931783   -2.249249
| 14> H        0.696535    2.680581   -2.225612
| 15> H        1.338709    1.291322   -3.121811
| 16> H        2.442862    2.463439   -2.390633
| 17> C        2.565540   -1.075324   -1.928175
| 18> H        2.249514   -0.728507   -2.915600
| 19> H        2.192282   -2.094362   -1.786204
| 20> H        3.663236   -1.101421   -1.912436
| 21> C        2.692583   -1.723434    1.172166
| 22> H        3.783501   -1.598681    1.210971
| 23> H        2.457484   -2.606090    0.574387
| 24> H        2.333089   -1.899010    2.188816
| 25> C        1.552612    0.773239    2.786124
| 26> H        2.502734    1.205302    3.127194
| 27> H        1.421923   -0.187720    3.289969
| 28> H        0.754394    1.442873    3.118115
| 29> C        0.799428    3.031668    0.660505
| 30> H        1.693878    3.613580    0.920796
| 31> H        0.118442    3.075561    1.514596
| 32> H        0.315927    3.528553   -0.183556
| 33> Cl      -0.006885   -2.617235   -0.279085
| 34> C       -1.774511   -0.580489   -1.372668
| 35> C       -1.428717    0.775607   -1.463600
| 36> C       -2.230150    1.901113   -0.842184
| 37> C       -2.597560    1.596364    0.619137
| 38> C       -1.528383    0.747182    1.301561
| 39> C       -1.615603   -0.659023    1.435525
| 40> C       -2.738883   -1.472042    0.832207
| 41> C       -3.001399   -1.117797   -0.653050
| 42> H       -3.131417    2.097786   -1.444322
| 43> H       -3.561641    1.080890    0.673312
| 44> H       -1.631000    2.816891   -0.882167
| 45> H       -3.816216   -0.389170   -0.734954
| 46> H       -1.353755   -1.240657   -2.123162
| 47> H       -0.836828    1.063474   -2.328552
| 48> H       -3.337183   -2.018298   -1.174989
| 49> H       -2.460187   -2.525401    0.898608
| 50> H       -1.127422   -1.117347    2.293712
| 51> H       -3.660878   -1.338434    1.419672
| 52> H       -2.720080    2.533691    1.172959
| 53> H       -0.970929    1.269583    2.073632
| 54> *
| 55>
| 56> %maxcore 5000
| 57>
| 58> %pal
| 59> nprocs = 24
| 60> end
| 61>
| 62>
| 63>                          ****END OF INPUT****

CARTESIAN COORDINATES (ANGSTROEM)
---------------------------------
  Ru    -0.064344   -0.175682   -0.012222
  C      1.546320    1.136494   -0.983353
  C      1.182588    1.622095    0.326342
  C      2.076803   -0.497674    0.579629
  C      2.043947   -0.183601   -0.846926
  C      1.561141    0.611266    1.297590
  C      1.492783    1.931783   -2.249249
  H      0.696535    2.680581   -2.225612
  H      1.338709    1.291322   -3.121811
  H      2.442862    2.463439   -2.390633
  C      2.565540   -1.075324   -1.928175
  H      2.249514   -0.728507   -2.915600
  H      2.192282   -2.094362   -1.786204
  H      3.663236   -1.101421   -1.912436
  C      2.692583   -1.723434    1.172166
  H      3.783501   -1.598681    1.210971
  H      2.457484   -2.606090    0.574387
  H      2.333089   -1.899010    2.188816
  C      1.552612    0.773239    2.786124
  H      2.502734    1.205302    3.127194
  H      1.421923   -0.187720    3.289969
  H      0.754394    1.442873    3.118115
  C      0.799428    3.031668    0.660505
  H      1.693878    3.613580    0.920796
  H      0.118442    3.075561    1.514596
  H      0.315927    3.528553   -0.183556
  Cl    -0.006885   -2.617235   -0.279085
  C     -1.774511   -0.580489   -1.372668
  C     -1.428717    0.775607   -1.463600
  C     -2.230150    1.901113   -0.842184
  C     -2.597560    1.596364    0.619137
  C     -1.528383    0.747182    1.301561
  C     -1.615603   -0.659023    1.435525
  C     -2.738883   -1.472042    0.832207
  C     -3.001399   -1.117797   -0.653050
  H     -3.131417    2.097786   -1.444322
  H     -3.561641    1.080890    0.673312
  H     -1.631000    2.816891   -0.882167
  H     -3.816216   -0.389170   -0.734954
  H     -1.353755   -1.240657   -2.123162
  H     -0.836828    1.063474   -2.328552
  H     -3.337183   -2.018298   -1.174989
  H     -2.460187   -2.525401    0.898608
  H     -1.127422   -1.117347    2.293712
  H     -3.660878   -1.338434    1.419672
  H     -2.720080    2.533691    1.172959
  H     -0.970929    1.269583    2.073632

 Total Charge           Charge          ....    0
 Multiplicity           Mult            ....    1
 Number of Electrons    NEL             ....  168
 Basis Dimension        Dim             .... 1232

ORBITAL ENERGIES
----------------

  NO   OCC          E(Eh)            E(eV)
   0   2.0000    -101.776239     -2769.4723
   1   2.0000     -10.381772      -282.5024
   2   2.0000     -10.377012      -282.3729
   3   2.0000     -10.374989      -282.3178
   4   2.0000     -10.373939      -282.2892
   5   2.0000     -10.369319      -282.1635
   6   2.0000     -10.358125      -281.8589
   7   2.0000     -10.357851      -281.8514
   8   2.0000     -10.355918      -281.7989
   9   2.0000     -10.354438      -281.7586
  10   2.0000     -10.353875      -281.7433
  11   2.0000     -10.348508      -281.5972
  12   2.0000     -10.348444      -281.5955
  13   2.0000     -10.345620      -281.5186
  14   2.0000     -10.344515      -281.4886
  15   2.0000     -10.337895      -281.3084
  16   2.0000     -10.335808      -281.2516
  17   2.0000     -10.335329      -281.2386
  18   2.0000     -10.330110      -281.0966
  19   2.0000      -9.549238      -259.8480
  20   2.0000      -7.251228      -197.3159
  21   2.0000      -7.247031      -197.2017
  22   2.0000      -7.246879      -197.1976
  23   2.0000      -3.150971       -85.7423
  24   2.0000      -2.001804       -54.4719
  25   2.0000      -1.984842       -54.0103
  26   2.0000      -1.976488       -53.7830
  27   2.0000      -1.029971       -28.0269
  28   2.0000      -0.960213       -26.1287
  29   2.0000      -0.918309       -24.9885
  30   2.0000      -0.911946       -24.8153
  31   2.0000      -0.898525       -24.4501
  32   2.0000      -0.891587       -24.2613
  33   2.0000      -0.854854       -23.2618
  34   2.0000      -0.845143       -22.9975
  35   2.0000      -0.842912       -22.9368
  36   2.0000      -0.834252       -22.7012
  37   2.0000      -0.810191       -22.0464
  38   2.0000      -0.784213       -21.3395
  39   2.0000      -0.753823       -20.5126
  40   2.0000      -0.744231       -20.2516
  41   2.0000      -0.710128       -19.3236
  42   2.0000      -0.666158       -18.1271
  43   2.0000      -0.641704       -17.4617
  44   2.0000      -0.639685       -17.4067
  45   2.0000      -0.627657       -17.0794
  46   2.0000      -0.606892       -16.5144
  47   2.0000      -0.587706       -15.9923
  48   2.0000      -0.576966       -15.7001
  49   2.0000      -0.571570       -15.5532
  50   2.0000      -0.564629       -15.3643
  51   2.0000      -0.546392       -14.8681
  52   2.0000      -0.543617       -14.7926
  53   2.0000      -0.537922       -14.6376
  54   2.0000      -0.531149       -14.4533
  55   2.0000      -0.530222       -14.4281
  56   2.0000      -0.521419       -14.1885
  57   2.0000      -0.517289       -14.0762
  58   2.0000      -0.515134       -14.0175
  59   2.0000      -0.509546       -13.8654
  60   2.0000      -0.506194       -13.7742
  61   2.0000      -0.504656       -13.7324
  62   2.0000      -0.493129       -13.4187
  63   2.0000      -0.483414       -13.1544
  64   2.0000      -0.481810       -13.1107
  65   2.0000      -0.468279       -12.7425
  66   2.0000      -0.465932       -12.6787
  67   2.0000      -0.453874       -12.3505
  68   2.0000      -0.452020       -12.3001
  69   2.0000      -0.448834       -12.2134
  70   2.0000      -0.443964       -12.0809
  71   2.0000      -0.441486       -12.0134
  72   2.0000      -0.419024       -11.4022
  73   2.0000      -0.412891       -11.2353
  74   2.0000      -0.393892       -10.7183
  75   2.0000      -0.378315       -10.2945
  76   2.0000      -0.371493       -10.1088
  77   2.0000      -0.364784        -9.9263
  78   2.0000      -0.359419        -9.7803
  79   2.0000      -0.343021        -9.3341
  80   2.0000      -0.337770        -9.1912
  81   2.0000      -0.311861        -8.4862
  82   2.0000      -0.307574        -8.3695
  83   2.0000      -0.286244        -7.7891
  84   0.0000       0.024741         0.6732
  85   0.0000       0.036021         0.9802
  86   0.0000       0.037714         1.0262
  87   0.0000       0.040070         1.0904
  88   0.0000       0.045558         1.2397

MULLIKEN ATOMIC CHARGES
-----------------------
   0 Ru:   -1.569533
   1 C :    0.275715
   2 C :    1.198352
   3 C :    0.686612
   4 C :    0.715933
   5 C :    1.154916
   6 C :   -1.543896
   7 H :    0.348838
   8 H :    0.402627
   9 H :    0.377335
  10 C :   -1.871093
  11 H :    0.368438
  12 H :    0.282571
  13 H :    0.357475
  14 C :   -1.659498
  15 H :    0.358965
  16 H :    0.280840
  17 H :    0.333129
  18 C :   -1.631557
  19 H :    0.351052
  20 H :    0.363384
  21 H :    0.310532
  22 C :   -1.581770
  23 H :    0.386429
  24 H :    0.297984
  25 H :    0.326395
  26 Cl:   -0.425765
  27 C :   -1.219416
  28 C :    0.769473
  29 C :   -1.089933
  30 C :   -1.512223
  31 C :    0.120565
  32 C :    0.028976
  33 C :   -1.076519
  34 C :   -0.692255
  35 H :    0.528047
  36 H :    0.326048
  37 H :    0.245326
  38 H :    0.301596
  39 H :    0.466652
  40 H :    0.990626
  41 H :    0.354773
  42 H :    0.437128
  43 H :    0.354305
  44 H :    0.471965
  45 H :    0.442551
  46 H :    0.857907
Sum of atomic charges:    0.0000000

LOEWDIN ATOMIC CHARGES
----------------------
   0 Ru:    0.962107
   1 C :   -0.210227
   2 C :   -0.225520
   3 C :   -0.258396
   4 C :   -0.237660
   5 C :   -0.232092
   6 C :    0.171545
   7 H :   -0.016118
   8 H :   -0.008919
   9 H :    0.012727
  10 C :    0.163196
  11 H :   -0.013049
  12 H :   -0.048003
  13 H :    0.004795
  14 C :    0.143648
  15 H :    0.008174
  16 H :   -0.060454
  17 H :   -0.011204
  18 C :    0.182978
  19 H :    0.009338
  20 H :   -0.006731
  21 H :   -0.020339
  22 C :    0.183010
  23 H :    0.009339
  24 H :   -0.013813
  25 H :   -0.021546
  26 Cl:    0.172492
  27 C :   -0.151711
  28 C :   -0.094197
  29 C :   -0.009154
  30 C :    0.001768
  31 C :   -0.100387
  32 C :   -0.153511
  33 C :   -0.063380
  34 C :   -0.019575
  35 H :    0.025326
  36 H :    0.002951
  37 H :   -0.007195
  38 H :    0.004301
  39 H :   -0.035854
  40 H :   -0.019342
  41 H :    0.015662
  42 H :   -0.027547
  43 H :   -0.006326
  44 H :    0.019927
  45 H :    0.016537
  46 H :   -0.037570

  Mayer bond orders larger than 0.100000
B(  0-Ru,  1-C ) :   0.8698 B(  0-Ru,  2-C ) :   0.4898 B(  0-Ru,  3-C ) :   0.5472
B(  0-Ru,  4-C ) :   0.3404 B(  0-Ru, 10-C ) :   0.2345 B(  0-Ru, 22-C ) :   0.1239
B(  0-Ru, 26-Cl) :   0.8806 B(  0-Ru, 27-C ) :   0.9819 B(  0-Ru, 28-C ) :  -0.1330
B(  0-Ru, 29-C ) :   0.4681 B(  0-Ru, 30-C ) :   0.1543 B(  0-Ru, 31-C ) :   0.7936
B(  0-Ru, 32-C ) :   0.2872 B(  0-Ru, 34-C ) :   0.1076 B(  1-C ,  2-C ) :  -0.3455
B(  1-C ,  3-C ) :  -0.1536 B(  1-C ,  4-C ) :   0.3621 B(  1-C ,  5-C ) :  -0.3532
B(  1-C ,  6-C ) :   0.1604 B(  1-C ,  7-H ) :  -0.2060 B(  1-C ,  8-H ) :  -0.1544
B(  1-C , 22-C ) :   0.1832 B(  1-C , 26-Cl) :   0.1559 B(  1-C , 27-C ) :   0.2218
B(  1-C , 28-C ) :  -0.2165 B(  1-C , 29-C ) :   0.1231 B(  2-C ,  3-C ) :  -0.1410
B(  2-C ,  4-C ) :  -0.4296 B(  2-C , 14-C ) :   0.1492 B(  2-C , 24-H ) :  -0.2222
B(  2-C , 25-H ) :  -0.2024 B(  2-C , 26-Cl) :  -0.1116 B(  2-C , 27-C ) :  -0.3514
B(  2-C , 30-C ) :   0.1227 B(  2-C , 31-C ) :  -0.1093 B(  3-C ,  4-C ) :   0.3000
B(  3-C ,  5-C ) :   0.7901 B(  3-C ,  6-C ) :   0.1053 B(  3-C , 10-C ) :  -0.2350
B(  3-C , 14-C ) :   0.3076 B(  3-C , 16-H ) :  -0.1711 B(  3-C , 17-H ) :  -0.1935
B(  3-C , 27-C ) :  -0.1443 B(  3-C , 28-C ) :  -0.1670 B(  4-C ,  5-C ) :  -0.3792
B(  4-C , 10-C ) :   0.2722 B(  4-C , 11-H ) :  -0.1841 B(  4-C , 12-H ) :  -0.2027
B(  4-C , 14-C ) :  -0.1850 B(  4-C , 26-Cl) :  -0.3023 B(  4-C , 27-C ) :   0.1491
B(  4-C , 28-C ) :   0.1569 B(  4-C , 32-C ) :  -0.1494 B(  5-C , 20-H ) :  -0.2013
B(  5-C , 21-H ) :  -0.1756 B(  5-C , 26-Cl) :   0.1407 B(  5-C , 28-C ) :   0.3039
B(  5-C , 32-C ) :   0.1695 B(  6-C ,  7-H ) :   0.9890 B(  6-C ,  8-H ) :   0.9280
B(  6-C ,  9-H ) :   0.8019 B(  6-C , 40-H ) :  -0.1040 B( 10-C , 11-H ) :   0.9207
B( 10-C , 12-H ) :   1.0383 B( 10-C , 13-H ) :   0.9354 B( 14-C , 15-H ) :   0.8888
B( 14-C , 16-H ) :   1.0406 B( 14-C , 17-H ) :   0.9590 B( 18-C , 19-H ) :   0.8735
B( 18-C , 20-H ) :   0.9800 B( 18-C , 21-H ) :   1.0454 B( 18-C , 31-C ) :   0.1058
B( 22-C , 23-H ) :   0.7908 B( 22-C , 24-H ) :   1.1026 B( 22-C , 25-H ) :   1.0100
B( 24-H , 25-H ) :   0.1074 B( 26-Cl, 27-C ) :   0.1945 B( 26-Cl, 32-C ) :  -0.1795
B( 26-Cl, 33-C ) :   0.1367 B( 26-Cl, 34-C ) :  -0.2622 B( 27-C , 28-C ) :  -0.6563
B( 27-C , 29-C ) :  -0.1291 B( 27-C , 32-C ) :  -0.3137 B( 27-C , 33-C ) :   0.1271
B( 27-C , 34-C ) :   0.5067 B( 27-C , 37-H ) :  -0.1131 B( 27-C , 38-H ) :  -0.1515
B( 27-C , 39-H ) :   1.1330 B( 27-C , 40-H ) :  -0.4043 B( 28-C , 29-C ) :   0.9169
B( 28-C , 32-C ) :   0.1761 B( 28-C , 36-H ) :   0.1031 B( 28-C , 39-H ) :  -0.2914
B( 28-C , 40-H ) :   0.3634 B( 29-C , 30-C ) :   0.5322 B( 29-C , 35-H ) :   0.7628
B( 29-C , 37-H ) :   1.0868 B( 30-C , 31-C ) :   0.5069 B( 30-C , 34-C ) :   0.2029
B( 30-C , 36-H ) :   1.1761 B( 30-C , 45-H ) :   0.8372 B( 31-C , 32-C ) :   0.7194
B( 31-C , 33-C ) :  -0.2545 B( 31-C , 34-C ) :  -0.1227 B( 31-C , 36-H ) :  -0.1973
B( 31-C , 43-H ) :  -0.1474 B( 31-C , 46-H ) :   0.1944 B( 32-C , 33-C ) :   0.7115
B( 32-C , 34-C ) :   0.1745 B( 32-C , 43-H ) :   1.0595 B( 32-C , 46-H ) :  -0.1596
B( 33-C , 34-C ) :   0.5550 B( 33-C , 42-H ) :   0.9373 B( 33-C , 44-H ) :   0.8352
B( 34-C , 38-H ) :   1.1094 B( 34-C , 41-H ) :   0.9236

FINAL SINGLE POINT ENERGY     -1257.211609157902

DIPOLE MOMENT
-------------
                                X             Y             Z
Electronic contribution:     -3.08831     -21.61970      -2.00621
Nuclear contribution   :      3.57716      23.71136       2.15126
                        -----------------------------------------
Total Dipole Moment    :      0.48885       2.09167       0.14505
                        -----------------------------------------
Magnitude (a.u.)       :      2.15292
Magnitude (Debye)      :      5.47230

Rotational constants in cm-1:     0.013422     0.011126     0.009459
Rotational constants in MHz :   402.378908   333.556426   283.583792

                             ****ORCA TERMINATED NORMALLY****
TOTAL RUN TIME: 0 days 1 hours 12 minutes 47 seconds 52 msec
