                         Program Version 4.2.0 -  RELEASE  -
|  1> #
|  2> # MOR16_ed33 wB97M-V/Def2-TZVPPD
|  3> #
|  4> ! wb97m-v def2-tzvppd def2/jk grid4 nofinalgrid
|  5>
|  6> *xyz 0 1
|  7> Ru      -0.022566   -0.070875   -0.379144
|  8> P        0.186586   -1.836138    1.061273
|  9> P       -0.107348    1.786969    0.983128
| 10> P       -2.337688   -0.031549   -0.574608
| 11> P        2.258415    0.217420   -0.654771
| 12> H       -1.011320    0.631023   -2.964588
| 13> C       -0.084126    0.244754   -2.536818
| 14> C        0.002235   -1.177677   -2.238071
| 15> H       -0.861138   -1.806799   -2.436001
| 16> C       -1.265405   -2.900768    1.510519
| 17> C        0.882199   -1.676365    2.777543
| 18> C        1.273276   -3.202818    0.434593
| 19> C       -0.218657    3.482246    0.220382
| 20> C       -1.474202    1.984957    2.229068
| 21> C        1.261931    2.159069    2.186793
| 22> C       -3.132442   -1.089929   -1.868209
| 23> C       -3.503325   -0.454941    0.806619
| 24> C       -3.065826    1.589188   -1.096490
| 25> C        3.115513   -0.738567   -1.988082
| 26> C        3.484163   -0.113039    0.695104
| 27> C        2.817918    1.905477   -1.167131
| 28> H        0.775994    0.734504   -2.997508
| 29> H        0.923698   -1.705224   -2.468332
| 30> H       -1.797994   -3.196368    0.601740
| 31> H       -1.951513   -2.343187    2.152343
| 32> H       -0.940552   -3.802999    2.042563
| 33> H        0.220858   -1.033459    3.367392
| 34> H        1.866404   -1.203417    2.738274
| 35> H        0.973380   -2.648584    3.278375
| 36> H        0.869924   -3.550933   -0.520488
| 37> H        1.326184   -4.042772    1.138076
| 38> H        2.284288   -2.829356    0.252702
| 39> H       -0.255493    4.275719    0.977504
| 40> H       -1.111307    3.540133   -0.406666
| 41> H        0.646533    3.642441   -0.427500
| 42> H       -1.340744    2.904812    2.810047
| 43> H       -1.464232    1.128616    2.910406
| 44> H       -2.450699    2.022913    1.741739
| 45> H        1.024646    3.051958    2.776564
| 46> H        2.206281    2.332826    1.666415
| 47> H        1.391528    1.309503    2.862930
| 48> H       -4.214574   -0.920776   -1.864995
| 49> H       -2.933677   -2.144929   -1.660324
| 50> H       -2.737237   -0.849967   -2.858203
| 51> H       -4.496496   -0.037297    0.606865
| 52> H       -3.139236   -0.075571    1.761748
| 53> H       -3.591401   -1.541056    0.877459
| 54> H       -4.128475    1.484093   -1.343350
| 55> H       -2.520683    1.955160   -1.969951
| 56> H       -2.964031    2.325987   -0.296631
| 57> H        4.171126   -0.449128   -2.023284
| 58> H        2.657332   -0.533147   -2.958558
| 59> H        3.043678   -1.811163   -1.790971
| 60> H        4.490887    0.184953    0.381316
| 61> H        3.492626   -1.181661    0.925550
| 62> H        3.218142    0.429172    1.603169
| 63> H        3.886252    1.913189   -1.411457
| 64> H        2.634640    2.627880   -0.369051
| 65> H        2.240286    2.211368   -2.043241
| 66> *
| 67>
| 68> %maxcore 5000
| 69>
| 70> %pal
| 71> nprocs = 24
| 72> end
| 73>
| 74>
| 75>                          ****END OF INPUT****

CARTESIAN COORDINATES (ANGSTROEM)
---------------------------------
  Ru    -0.022566   -0.070875   -0.379144
  P      0.186586   -1.836138    1.061273
  P     -0.107348    1.786969    0.983128
  P     -2.337688   -0.031549   -0.574608
  P      2.258415    0.217420   -0.654771
  H     -1.011320    0.631023   -2.964588
  C     -0.084126    0.244754   -2.536818
  C      0.002235   -1.177677   -2.238071
  H     -0.861138   -1.806799   -2.436001
  C     -1.265405   -2.900768    1.510519
  C      0.882199   -1.676365    2.777543
  C      1.273276   -3.202818    0.434593
  C     -0.218657    3.482246    0.220382
  C     -1.474202    1.984957    2.229068
  C      1.261931    2.159069    2.186793
  C     -3.132442   -1.089929   -1.868209
  C     -3.503325   -0.454941    0.806619
  C     -3.065826    1.589188   -1.096490
  C      3.115513   -0.738567   -1.988082
  C      3.484163   -0.113039    0.695104
  C      2.817918    1.905477   -1.167131
  H      0.775994    0.734504   -2.997508
  H      0.923698   -1.705224   -2.468332
  H     -1.797994   -3.196368    0.601740
  H     -1.951513   -2.343187    2.152343
  H     -0.940552   -3.802999    2.042563
  H      0.220858   -1.033459    3.367392
  H      1.866404   -1.203417    2.738274
  H      0.973380   -2.648584    3.278375
  H      0.869924   -3.550933   -0.520488
  H      1.326184   -4.042772    1.138076
  H      2.284288   -2.829356    0.252702
  H     -0.255493    4.275719    0.977504
  H     -1.111307    3.540133   -0.406666
  H      0.646533    3.642441   -0.427500
  H     -1.340744    2.904812    2.810047
  H     -1.464232    1.128616    2.910406
  H     -2.450699    2.022913    1.741739
  H      1.024646    3.051958    2.776564
  H      2.206281    2.332826    1.666415
  H      1.391528    1.309503    2.862930
  H     -4.214574   -0.920776   -1.864995
  H     -2.933677   -2.144929   -1.660324
  H     -2.737237   -0.849967   -2.858203
  H     -4.496496   -0.037297    0.606865
  H     -3.139236   -0.075571    1.761748
  H     -3.591401   -1.541056    0.877459
  H     -4.128475    1.484093   -1.343350
  H     -2.520683    1.955160   -1.969951
  H     -2.964031    2.325987   -0.296631
  H      4.171126   -0.449128   -2.023284
  H      2.657332   -0.533147   -2.958558
  H      3.043678   -1.811163   -1.790971
  H      4.490887    0.184953    0.381316
  H      3.492626   -1.181661    0.925550
  H      3.218142    0.429172    1.603169
  H      3.886252    1.913189   -1.411457
  H      2.634640    2.627880   -0.369051
  H      2.240286    2.211368   -2.043241

 Total Charge           Charge          ....    0
 Multiplicity           Mult            ....    1
 Number of Electrons    NEL             ....  200
 Basis Dimension        Dim             .... 1446

ORBITAL ENERGIES
----------------

  NO   OCC          E(Eh)            E(eV)
   0   2.0000     -77.383196     -2105.7038
   1   2.0000     -77.381596     -2105.6603
   2   2.0000     -77.378136     -2105.5661
   3   2.0000     -77.374566     -2105.4690
   4   2.0000     -10.336429      -281.2685
   5   2.0000     -10.333893      -281.1995
   6   2.0000     -10.332810      -281.1701
   7   2.0000     -10.332664      -281.1661
   8   2.0000     -10.332228      -281.1542
   9   2.0000     -10.331561      -281.1361
  10   2.0000     -10.331226      -281.1270
  11   2.0000     -10.330880      -281.1175
  12   2.0000     -10.329304      -281.0746
  13   2.0000     -10.328953      -281.0651
  14   2.0000     -10.325698      -280.9765
  15   2.0000     -10.325553      -280.9726
  16   2.0000     -10.298045      -280.2240
  17   2.0000     -10.291233      -280.0387
  18   2.0000      -6.727584      -183.0669
  19   2.0000      -6.726061      -183.0254
  20   2.0000      -6.721394      -182.8984
  21   2.0000      -6.717967      -182.8052
  22   2.0000      -4.840544      -131.7179
  23   2.0000      -4.840339      -131.7123
  24   2.0000      -4.839002      -131.6759
  25   2.0000      -4.838821      -131.6710
  26   2.0000      -4.836721      -131.6139
  27   2.0000      -4.835178      -131.5719
  28   2.0000      -4.834512      -131.5538
  29   2.0000      -4.834135      -131.5435
  30   2.0000      -4.830970      -131.4574
  31   2.0000      -4.830805      -131.4529
  32   2.0000      -4.830571      -131.4465
  33   2.0000      -4.827155      -131.3536
  34   2.0000      -3.085847       -83.9702
  35   2.0000      -1.929873       -52.5145
  36   2.0000      -1.923455       -52.3399
  37   2.0000      -1.916667       -52.1552
  38   2.0000      -0.894056       -24.3285
  39   2.0000      -0.887582       -24.1523
  40   2.0000      -0.879632       -23.9360
  41   2.0000      -0.877600       -23.8807
  42   2.0000      -0.827895       -22.5282
  43   2.0000      -0.812540       -22.1103
  44   2.0000      -0.810291       -22.0492
  45   2.0000      -0.809376       -22.0242
  46   2.0000      -0.802294       -21.8315
  47   2.0000      -0.800692       -21.7879
  48   2.0000      -0.799858       -21.7652
  49   2.0000      -0.798865       -21.7382
  50   2.0000      -0.797297       -21.6955
  51   2.0000      -0.664460       -18.0809
  52   2.0000      -0.658426       -17.9167
  53   2.0000      -0.647804       -17.6277
  54   2.0000      -0.642976       -17.4963
  55   2.0000      -0.641193       -17.4478
  56   2.0000      -0.568821       -15.4784
  57   2.0000      -0.566776       -15.4228
  58   2.0000      -0.557239       -15.1632
  59   2.0000      -0.551491       -15.0068
  60   2.0000      -0.544083       -14.8052
  61   2.0000      -0.540473       -14.7070
  62   2.0000      -0.536818       -14.6076
  63   2.0000      -0.533666       -14.5218
  64   2.0000      -0.527755       -14.3609
  65   2.0000      -0.524138       -14.2625
  66   2.0000      -0.519713       -14.1421
  67   2.0000      -0.515933       -14.0393
  68   2.0000      -0.513423       -13.9709
  69   2.0000      -0.501671       -13.6512
  70   2.0000      -0.497974       -13.5506
  71   2.0000      -0.496462       -13.5094
  72   2.0000      -0.492284       -13.3957
  73   2.0000      -0.489850       -13.3295
  74   2.0000      -0.488336       -13.2883
  75   2.0000      -0.486124       -13.2281
  76   2.0000      -0.482973       -13.1424
  77   2.0000      -0.481330       -13.0976
  78   2.0000      -0.480947       -13.0872
  79   2.0000      -0.479187       -13.0393
  80   2.0000      -0.475643       -12.9429
  81   2.0000      -0.472004       -12.8439
  82   2.0000      -0.435258       -11.8440
  83   2.0000      -0.432038       -11.7564
  84   2.0000      -0.425683       -11.5834
  85   2.0000      -0.422998       -11.5104
  86   2.0000      -0.420261       -11.4359
  87   2.0000      -0.416017       -11.3204
  88   2.0000      -0.410778       -11.1778
  89   2.0000      -0.409229       -11.1357
  90   2.0000      -0.406043       -11.0490
  91   2.0000      -0.404670       -11.0116
  92   2.0000      -0.389252       -10.5921
  93   2.0000      -0.380602       -10.3567
  94   2.0000      -0.333677        -9.0798
  95   2.0000      -0.328576        -8.9410
  96   2.0000      -0.289566        -7.8795
  97   2.0000      -0.284910        -7.7528
  98   2.0000      -0.263029        -7.1574
  99   2.0000      -0.235660        -6.4126
 100   0.0000       0.025838         0.7031
 101   0.0000       0.036912         1.0044
 102   0.0000       0.039852         1.0844
 103   0.0000       0.043068         1.1720
 104   0.0000       0.055516         1.5107

MULLIKEN ATOMIC CHARGES
-----------------------
   0 Ru:   -1.223376
   1 P :    1.835551
   2 P :    1.410318
   3 P :    1.725477
   4 P :    1.285196
   5 H :    0.250305
   6 C :   -1.027944
   7 C :   -0.481550
   8 H :    0.296231
   9 C :   -1.540880
  10 C :   -1.448276
  11 C :   -1.458096
  12 C :   -1.632847
  13 C :   -1.372503
  14 C :   -1.349194
  15 C :   -1.644256
  16 C :   -1.533532
  17 C :   -1.551479
  18 C :   -1.600425
  19 C :   -1.406228
  20 C :   -1.433919
  21 H :    0.258526
  22 H :    0.284099
  23 H :    0.304991
  24 H :    0.293686
  25 H :    0.492125
  26 H :    0.304700
  27 H :    0.304000
  28 H :    0.461368
  29 H :    0.308529
  30 H :    0.471551
  31 H :    0.276163
  32 H :    0.433808
  33 H :    0.353093
  34 H :    0.363163
  35 H :    0.475312
  36 H :    0.267801
  37 H :    0.347402
  38 H :    0.486590
  39 H :    0.337247
  40 H :    0.286603
  41 H :    0.485642
  42 H :    0.302239
  43 H :    0.374535
  44 H :    0.470054
  45 H :    0.250008
  46 H :    0.397261
  47 H :    0.487746
  48 H :    0.269601
  49 H :    0.353648
  50 H :    0.507891
  51 H :    0.387496
  52 H :    0.317842
  53 H :    0.488442
  54 H :    0.358910
  55 H :    0.254850
  56 H :    0.490052
  57 H :    0.331647
  58 H :    0.262805
Sum of atomic charges:    0.0000000

LOEWDIN ATOMIC CHARGES
----------------------
   0 Ru:    0.075515
   1 P :    0.786653
   2 P :    0.774480
   3 P :    0.830728
   4 P :    0.825523
   5 H :   -0.094928
   6 C :   -0.145741
   7 C :   -0.157422
   8 H :   -0.097247
   9 C :   -0.040887
  10 C :   -0.033171
  11 C :   -0.030067
  12 C :   -0.013451
  13 C :   -0.040165
  14 C :   -0.035455
  15 C :   -0.026160
  16 C :   -0.020601
  17 C :   -0.024339
  18 C :   -0.019666
  19 C :   -0.017592
  20 C :   -0.019018
  21 H :   -0.094042
  22 H :   -0.098915
  23 H :   -0.059757
  24 H :   -0.070784
  25 H :   -0.052998
  26 H :   -0.064375
  27 H :   -0.082084
  28 H :   -0.051765
  29 H :   -0.053708
  30 H :   -0.053331
  31 H :   -0.087967
  32 H :   -0.050914
  33 H :   -0.074732
  34 H :   -0.073314
  35 H :   -0.051925
  36 H :   -0.060370
  37 H :   -0.085963
  38 H :   -0.051208
  39 H :   -0.085792
  40 H :   -0.066371
  41 H :   -0.047538
  42 H :   -0.054892
  43 H :   -0.056516
  44 H :   -0.046020
  45 H :   -0.080355
  46 H :   -0.071261
  47 H :   -0.050085
  48 H :   -0.058876
  49 H :   -0.084977
  50 H :   -0.048594
  51 H :   -0.055399
  52 H :   -0.058805
  53 H :   -0.046258
  54 H :   -0.071404
  55 H :   -0.083986
  56 H :   -0.049046
  57 H :   -0.086425
  58 H :   -0.056236

  Mayer bond orders larger than 0.100000
B(  0-Ru,  1-P ) :   0.6082 B(  0-Ru,  2-P ) :   0.7989 B(  0-Ru,  3-P ) :   0.6832
B(  0-Ru,  4-P ) :   0.8882 B(  0-Ru,  6-C ) :   0.8091 B(  0-Ru,  7-C ) :   0.6590
B(  0-Ru, 11-C ) :   0.1376 B(  0-Ru, 21-H ) :   0.1135 B(  1-P ,  2-P ) :   0.3688
B(  1-P ,  4-P ) :   0.1757 B(  1-P ,  9-C ) :   0.2146 B(  1-P , 10-C ) :   0.4406
B(  1-P , 11-C ) :   0.5130 B(  1-P , 24-H ) :  -0.1377 B(  2-P ,  3-P ) :   0.2440
B(  2-P ,  4-P ) :   0.1781 B(  2-P , 12-C ) :   0.4933 B(  2-P , 13-C ) :   0.1441
B(  2-P , 14-C ) :   0.1638 B(  2-P , 36-H ) :  -0.1149 B(  3-P ,  4-P ) :   0.2208
B(  3-P ,  6-C ) :   0.2267 B(  3-P ,  7-C ) :  -0.2768 B(  3-P , 15-C ) :   0.1286
B(  3-P , 16-C ) :   0.1057 B(  3-P , 17-C ) :   0.2983 B(  3-P , 42-H ) :  -0.1496
B(  3-P , 43-H ) :  -0.1036 B(  3-P , 45-H ) :  -0.1757 B(  4-P ,  6-C ) :   0.1837
B(  4-P ,  7-C ) :  -0.2199 B(  4-P , 18-C ) :   0.2372 B(  4-P , 19-C ) :   0.3441
B(  4-P , 20-C ) :   0.2530 B(  4-P , 51-H ) :  -0.1091 B(  4-P , 52-H ) :  -0.1215
B(  4-P , 55-H ) :  -0.1110 B(  4-P , 58-H ) :  -0.1075 B(  5-H ,  6-C ) :   1.1714
B(  5-H ,  7-C ) :  -0.1736 B(  6-C ,  7-C ) :   0.6941 B(  6-C ,  8-H ) :  -0.1250
B(  6-C , 21-H ) :   1.1306 B(  6-C , 22-H ) :  -0.1000 B(  7-C ,  8-H ) :   1.0874
B(  7-C , 21-H ) :  -0.1563 B(  7-C , 22-H ) :   1.1053 B(  9-C , 11-C ) :   0.1284
B(  9-C , 23-H ) :   1.0154 B(  9-C , 24-H ) :   1.0561 B(  9-C , 25-H ) :   0.7792
B( 10-C , 26-H ) :   1.0141 B( 10-C , 27-H ) :   0.9816 B( 10-C , 28-H ) :   0.8281
B( 11-C , 29-H ) :   1.0173 B( 11-C , 30-H ) :   0.8147 B( 11-C , 31-H ) :   0.9773
B( 12-C , 13-C ) :   0.1086 B( 12-C , 14-C ) :   0.1118 B( 12-C , 32-H ) :   0.8603
B( 12-C , 33-H ) :   0.9628 B( 12-C , 34-H ) :   0.9817 B( 13-C , 14-C ) :   0.1776
B( 13-C , 35-H ) :   0.8132 B( 13-C , 36-H ) :   1.0901 B( 13-C , 37-H ) :   0.9674
B( 14-C , 38-H ) :   0.7959 B( 14-C , 39-H ) :   0.9712 B( 14-C , 40-H ) :   1.0732
B( 15-C , 16-C ) :   0.1439 B( 15-C , 17-C ) :   0.1651 B( 15-C , 41-H ) :   0.7690
B( 15-C , 42-H ) :   1.0936 B( 15-C , 43-H ) :   0.9398 B( 16-C , 17-C ) :   0.1135
B( 16-C , 44-H ) :   0.7876 B( 16-C , 45-H ) :   1.1779 B( 16-C , 46-H ) :   0.8923
B( 17-C , 47-H ) :   0.7812 B( 17-C , 48-H ) :   1.0760 B( 17-C , 49-H ) :   0.9750
B( 18-C , 19-C ) :   0.1113 B( 18-C , 20-C ) :   0.1489 B( 18-C , 50-H ) :   0.7363
B( 18-C , 51-H ) :   0.9355 B( 18-C , 52-H ) :   1.0782 B( 19-C , 20-C ) :   0.1180
B( 19-C , 53-H ) :   0.7711 B( 19-C , 54-H ) :   0.9735 B( 19-C , 55-H ) :   1.1012
B( 20-C , 56-H ) :   0.7715 B( 20-C , 57-H ) :   0.9886 B( 20-C , 58-H ) :   1.0940
B( 39-H , 40-H ) :   0.1176 B( 41-H , 43-H ) :   0.1010 B( 44-H , 46-H ) :   0.1107
B( 54-H , 55-H ) :   0.1169 B( 56-H , 58-H ) :   0.1040

FINAL SINGLE POINT ENERGY     -2017.803564822705

DIPOLE MOMENT
-------------
                                X             Y             Z
Electronic contribution:     -1.79839      -5.12888     -26.84314
Nuclear contribution   :      1.82563       5.30534      27.72313
                        -----------------------------------------
Total Dipole Moment    :      0.02724       0.17646       0.87999
                        -----------------------------------------
Magnitude (a.u.)       :      0.89792
Magnitude (Debye)      :      2.28234

Rotational constants in cm-1:     0.009351     0.007693     0.006898
Rotational constants in MHz :   280.325632   230.636339   206.809498

                             ****ORCA TERMINATED NORMALLY****
TOTAL RUN TIME: 0 days 1 hours 21 minutes 45 seconds 149 msec
