                         Program Version 4.2.0 -  RELEASE  -
|  1> #
|  2> # MOR11_ed11 wB97M-V/Def2-TZVPPD
|  3> #
|  4> ! wb97m-v def2-tzvppd def2/jk grid4 nofinalgrid
|  5>
|  6> *xyz 0 1
|  7> C       -0.215143    2.474912    0.000943
|  8> C        0.405007    3.719049    0.001069
|  9> C        1.797844    3.776033    0.000678
| 10> C        2.518886    2.587780    0.000166
| 11> H       -1.296303    2.357179    0.001183
| 12> H       -0.198474    4.620568    0.001502
| 13> H        2.316345    4.729851    0.000789
| 14> H        3.602578    2.611029   -0.000041
| 15> N        0.477795    1.324684    0.000439
| 16> C        1.835277    1.367244    0.000057
| 17> C        2.509992    0.059887   -0.000357
| 18> N        1.694840   -1.036421    0.000876
| 19> C        2.257001   -2.260308    0.000535
| 20> C        4.472096   -1.347919   -0.002398
| 21> C        3.629983   -2.459360   -0.001050
| 22> H        1.562821   -3.092687    0.001515
| 23> H        4.023772   -3.470102   -0.001337
| 24> C        3.900751   -0.081941   -0.002040
| 25> H        4.532932    0.798314   -0.003223
| 26> H        5.551118   -1.464051   -0.003853
| 27> Pd      -0.336917   -0.654572    0.001071
| 28> C       -0.858975   -2.626404    0.002691
| 29> H       -0.413078   -3.060930    0.907026
| 30> H       -0.415091   -3.062278   -0.901950
| 31> H       -1.933716   -2.807010    0.004117
| 32> I       -2.840745   -0.024929   -0.001244
| 33> *
| 34>
| 35> %maxcore 5000
| 36>
| 37> %pal
| 38> nprocs = 24
| 39> end
| 40>
| 41>
| 42>                          ****END OF INPUT****

CARTESIAN COORDINATES (ANGSTROEM)
---------------------------------
  C     -0.215143    2.474912    0.000943
  C      0.405007    3.719049    0.001069
  C      1.797844    3.776033    0.000678
  C      2.518886    2.587780    0.000166
  H     -1.296303    2.357179    0.001183
  H     -0.198474    4.620568    0.001502
  H      2.316345    4.729851    0.000789
  H      3.602578    2.611029   -0.000041
  N      0.477795    1.324684    0.000439
  C      1.835277    1.367244    0.000057
  C      2.509992    0.059887   -0.000357
  N      1.694840   -1.036421    0.000876
  C      2.257001   -2.260308    0.000535
  C      4.472096   -1.347919   -0.002398
  C      3.629983   -2.459360   -0.001050
  H      1.562821   -3.092687    0.001515
  H      4.023772   -3.470102   -0.001337
  C      3.900751   -0.081941   -0.002040
  H      4.532932    0.798314   -0.003223
  H      5.551118   -1.464051   -0.003853
  Pd    -0.336917   -0.654572    0.001071
  C     -0.858975   -2.626404    0.002691
  H     -0.413078   -3.060930    0.907026
  H     -0.415091   -3.062278   -0.901950
  H     -1.933716   -2.807010    0.004117
  I     -2.840745   -0.024929   -0.001244

 Total Charge           Charge          ....    0
 Multiplicity           Mult            ....    1
 Number of Electrons    NEL             ....  134
 Basis Dimension        Dim             ....  783

ORBITAL ENERGIES
----------------

  NO   OCC          E(Eh)            E(eV)
   0   2.0000     -14.583585      -396.8395
   1   2.0000     -14.566471      -396.3738
   2   2.0000     -10.445204      -284.2284
   3   2.0000     -10.438712      -284.0518
   4   2.0000     -10.425587      -283.6946
   5   2.0000     -10.413184      -283.3571
   6   2.0000     -10.410630      -283.2876
   7   2.0000     -10.403890      -283.1043
   8   2.0000     -10.403265      -283.0872
   9   2.0000     -10.398338      -282.9532
  10   2.0000     -10.397624      -282.9337
  11   2.0000     -10.389567      -282.7145
  12   2.0000     -10.305536      -280.4279
  13   2.0000      -6.931012      -188.6024
  14   2.0000      -4.936480      -134.3284
  15   2.0000      -4.931243      -134.1859
  16   2.0000      -4.930989      -134.1790
  17   2.0000      -3.585183       -97.5578
  18   2.0000      -2.268262       -61.7226
  19   2.0000      -2.265294       -61.6418
  20   2.0000      -2.239857       -60.9496
  21   2.0000      -1.956102       -53.2282
  22   2.0000      -1.954223       -53.1771
  23   2.0000      -1.954137       -53.1748
  24   2.0000      -1.949657       -53.0529
  25   2.0000      -1.949636       -53.0523
  26   2.0000      -1.135234       -30.8913
  27   2.0000      -1.107210       -30.1287
  28   2.0000      -0.978156       -26.6170
  29   2.0000      -0.966389       -26.2968
  30   2.0000      -0.963864       -26.2281
  31   2.0000      -0.905770       -24.6473
  32   2.0000      -0.818426       -22.2705
  33   2.0000      -0.809306       -22.0223
  34   2.0000      -0.774030       -21.0624
  35   2.0000      -0.765556       -20.8318
  36   2.0000      -0.760007       -20.6808
  37   2.0000      -0.728142       -19.8137
  38   2.0000      -0.697551       -18.9813
  39   2.0000      -0.654819       -17.8185
  40   2.0000      -0.652607       -17.7583
  41   2.0000      -0.629712       -17.1353
  42   2.0000      -0.612645       -16.6709
  43   2.0000      -0.588139       -16.0041
  44   2.0000      -0.585573       -15.9343
  45   2.0000      -0.576329       -15.6827
  46   2.0000      -0.569015       -15.4837
  47   2.0000      -0.555919       -15.1273
  48   2.0000      -0.544972       -14.8294
  49   2.0000      -0.516569       -14.0566
  50   2.0000      -0.503243       -13.6939
  51   2.0000      -0.481357       -13.0984
  52   2.0000      -0.480530       -13.0759
  53   2.0000      -0.469016       -12.7626
  54   2.0000      -0.464919       -12.6511
  55   2.0000      -0.444335       -12.0910
  56   2.0000      -0.429175       -11.6784
  57   2.0000      -0.424404       -11.5486
  58   2.0000      -0.374931       -10.2024
  59   2.0000      -0.366191        -9.9646
  60   2.0000      -0.359756        -9.7895
  61   2.0000      -0.359408        -9.7800
  62   2.0000      -0.342728        -9.3261
  63   2.0000      -0.341901        -9.3036
  64   2.0000      -0.311968        -8.4891
  65   2.0000      -0.283689        -7.7196
  66   2.0000      -0.281357        -7.6561
  67   0.0000      -0.034311        -0.9336
  68   0.0000       0.000490         0.0133
  69   0.0000       0.011993         0.3263
  70   0.0000       0.017534         0.4771
  71   0.0000       0.025329         0.6892

MULLIKEN ATOMIC CHARGES
-----------------------
   0 C :    0.348687
   1 C :   -0.424684
   2 C :   -0.175918
   3 C :   -0.230924
   4 H :   -0.183951
   5 H :    0.159570
   6 H :    0.183785
   7 H :    0.036192
   8 N :   -0.007427
   9 C :    0.749074
  10 C :    0.057474
  11 N :    0.053080
  12 C :   -0.005656
  13 C :   -0.170035
  14 C :   -0.362417
  15 H :    0.145507
  16 H :    0.157049
  17 C :   -0.241788
  18 H :    0.026741
  19 H :    0.184814
  20 Pd:    0.081504
  21 C :   -0.892322
  22 H :    0.251585
  23 H :    0.252301
  24 H :    0.335018
  25 I :   -0.327259
Sum of atomic charges:    0.0000000

LOEWDIN ATOMIC CHARGES
----------------------
   0 C :   -0.049891
   1 C :    0.059373
   2 C :    0.049593
   3 C :    0.077313
   4 H :   -0.091071
   5 H :    0.009723
   6 H :    0.012590
   7 H :    0.000193
   8 N :    0.005264
   9 C :   -0.174711
  10 C :   -0.159144
  11 N :    0.020007
  12 C :   -0.009739
  13 C :    0.053252
  14 C :    0.059326
  15 H :   -0.012075
  16 H :    0.010051
  17 C :    0.079808
  18 H :    0.001769
  19 H :    0.013797
  20 Pd:    0.410963
  21 C :   -0.073005
  22 H :   -0.109438
  23 H :   -0.109402
  24 H :   -0.166056
  25 I :    0.091512

  Mayer bond orders larger than 0.100000
B(  0-C ,  1-C ) :   1.2405 B(  0-C ,  4-H ) :   0.9053 B(  0-C ,  8-N ) :   1.3932
B(  0-C , 25-I ) :  -0.1909 B(  1-C ,  2-C ) :   1.0892 B(  1-C ,  5-H ) :   1.0514
B(  2-C ,  3-C ) :   1.1105 B(  2-C ,  6-H ) :   1.0326 B(  3-C ,  7-H ) :   1.2020
B(  3-C ,  8-N ) :  -0.1606 B(  3-C ,  9-C ) :   0.8041 B(  3-C , 10-C ) :  -0.2063
B(  3-C , 20-Pd) :   0.1384 B(  4-H ,  8-N ) :  -0.1342 B(  4-H , 25-I ) :   0.3903
B(  7-H ,  9-C ) :  -0.2710 B(  8-N ,  9-C ) :   1.0930 B(  8-N , 10-C ) :   0.4240
B(  8-N , 20-Pd) :   0.1558 B(  9-C , 10-C ) :   1.0759 B(  9-C , 17-C ) :  -0.3172
B(  9-C , 20-Pd) :  -0.1808 B( 10-C , 11-N ) :   1.4723 B( 10-C , 17-C ) :   0.8253
B( 10-C , 18-H ) :  -0.3001 B( 10-C , 20-Pd) :   0.1539 B( 11-N , 12-C ) :   1.5715
B( 11-N , 13-C ) :   0.1095 B( 11-N , 17-C ) :  -0.1763 B( 11-N , 20-Pd) :   0.2804
B( 11-N , 21-C ) :  -0.1026 B( 12-C , 14-C ) :   1.1871 B( 12-C , 15-H ) :   1.0254
B( 13-C , 14-C ) :   1.1078 B( 13-C , 17-C ) :   1.1015 B( 13-C , 19-H ) :   1.0335
B( 14-C , 16-H ) :   1.0533 B( 17-C , 18-H ) :   1.2180 B( 17-C , 20-Pd) :   0.1410
B( 20-Pd, 21-C ) :   0.6619 B( 20-Pd, 25-I ) :   0.8917 B( 21-C , 22-H ) :   0.9894
B( 21-C , 23-H ) :   0.9893 B( 21-C , 24-H ) :   0.9063

FINAL SINGLE POINT ENERGY      -960.899311533653

DIPOLE MOMENT
-------------
                                X             Y             Z
Electronic contribution:   -214.28758     -39.83320      -0.01932
Nuclear contribution   :    218.94043      41.00073       0.01934
                        -----------------------------------------
Total Dipole Moment    :      4.65284       1.16753       0.00002
                        -----------------------------------------
Magnitude (a.u.)       :      4.79709
Magnitude (Debye)      :     12.19324

Rotational constants in cm-1:     0.017794     0.008244     0.005640
Rotational constants in MHz :   533.441148   247.152748   169.085365

                             ****ORCA TERMINATED NORMALLY****
TOTAL RUN TIME: 0 days 0 hours 17 minutes 2 seconds 314 msec
