                         Program Version 4.2.0 -  RELEASE  -
|  1> #
|  2> # MOR27_pr07 wB97M-V/Def2-TZVPPD
|  3> #
|  4> ! wb97m-v def2-tzvppd def2/jk grid4 nofinalgrid
|  5>
|  6> *xyz 0 1
|  7> W        0.000153   -0.023654    0.145460
|  8> C       -0.000249    1.935753    0.684175
|  9> O       -0.000602    3.038332    1.069126
| 10> C        0.000042    0.319115   -1.817511
| 11> O        0.000023    0.516387   -2.971186
| 12> C        0.000186   -2.057627    0.000209
| 13> O        0.000001   -3.223688    0.015338
| 14> H       -0.422672   -0.342863    1.975704
| 15> H        0.423087   -0.343070    1.976292
| 16> P        2.499044    0.051189    0.053466
| 17> C        3.398497   -0.579400    1.568536
| 18> H        4.468576   -0.564735    1.332934
| 19> C        3.357030   -0.829661   -1.379272
| 20> H        3.371948   -0.051400   -2.154068
| 21> C        3.157630    1.804169   -0.095931
| 22> H        2.704128    2.295578    0.773940
| 23> C       -3.158190    1.803853   -0.098051
| 24> P       -2.499342    0.051185    0.053494
| 25> H       -4.468329   -0.563916    1.334439
| 26> H       -2.705915    2.296277    0.771888
| 27> C       -3.357947   -0.831337   -1.377937
| 28> H       -3.374541   -0.053484   -2.153122
| 29> C        4.805704   -1.269244   -1.108536
| 30> H        5.254950   -1.620204   -2.045252
| 31> H        4.835898   -2.103732   -0.400453
| 32> H        5.434431   -0.467933   -0.716341
| 33> C        2.560788   -2.016752   -1.935473
| 34> H        3.061937   -2.400142   -2.832615
| 35> H        1.542966   -1.732188   -2.204810
| 36> H        2.502084   -2.833493   -1.209948
| 37> C        4.680481    1.979802   -0.012340
| 38> H        4.916239    3.046506    0.083978
| 39> H        5.169829    1.620688   -0.922848
| 40> H        5.123446    1.463622    0.844533
| 41> C        2.617881    2.501599   -1.352306
| 42> H        2.906367    3.558914   -1.336615
| 43> H        1.529775    2.443192   -1.410983
| 44> H        3.032951    2.058398   -2.264167
| 45> C        3.156179    0.325190    2.783070
| 46> H        3.624905   -0.113517    3.671755
| 47> H        2.084721    0.431553    2.987984
| 48> H        3.570907    1.327076    2.642068
| 49> C        2.983676   -2.024266    1.875196
| 50> H        3.139448   -2.690345    1.021876
| 51> H        1.922767   -2.073885    2.140278
| 52> H        3.565975   -2.409562    2.720613
| 53> C       -4.681242    1.978525   -0.016373
| 54> H       -5.169268    1.617830   -0.926977
| 55> H       -4.917927    3.045167    0.078302
| 56> H       -5.124772    1.463082    0.840662
| 57> C       -2.617453    2.500423   -1.354472
| 58> H       -3.030239    2.055355   -2.266464
| 59> C       -2.982294   -2.021525    1.878658
| 60> H       -1.529170    2.443643   -1.411239
| 61> H       -2.907637    3.557302   -1.340680
| 62> C       -3.156106    0.329464    2.782654
| 63> H       -1.921474   -2.069894    2.144316
| 64> H       -3.564665   -2.406148    2.724324
| 65> H       -3.137027   -2.688908    1.026165
| 66> C       -3.398186   -0.577432    1.569777
| 67> H       -3.622276   -0.109074    3.672772
| 68> H       -3.573608    1.330095    2.640827
| 69> H       -2.084555    0.438855    2.985621
| 70> C       -4.805869   -1.272290   -1.105425
| 71> H       -5.255612   -1.624537   -2.041419
| 72> H       -5.435110   -0.471325   -0.713333
| 73> H       -4.834472   -2.106207   -0.396602
| 74> C       -2.561058   -2.017888   -1.934324
| 75> H       -2.500954   -2.834229   -1.208460
| 76> H       -1.543733   -1.732464   -2.204653
| 77> H       -3.062606   -2.402180   -2.830854
| 78> *
| 79>
| 80> %maxcore 5000
| 81>
| 82> %pal
| 83> nprocs = 24
| 84> end
| 85>
| 86>
| 87>                          ****END OF INPUT****

CARTESIAN COORDINATES (ANGSTROEM)
---------------------------------
  W      0.000153   -0.023654    0.145460
  C     -0.000249    1.935753    0.684175
  O     -0.000602    3.038332    1.069126
  C      0.000042    0.319115   -1.817511
  O      0.000023    0.516387   -2.971186
  C      0.000186   -2.057627    0.000209
  O      0.000001   -3.223688    0.015338
  H     -0.422672   -0.342863    1.975704
  H      0.423087   -0.343070    1.976292
  P      2.499044    0.051189    0.053466
  C      3.398497   -0.579400    1.568536
  H      4.468576   -0.564735    1.332934
  C      3.357030   -0.829661   -1.379272
  H      3.371948   -0.051400   -2.154068
  C      3.157630    1.804169   -0.095931
  H      2.704128    2.295578    0.773940
  C     -3.158190    1.803853   -0.098051
  P     -2.499342    0.051185    0.053494
  H     -4.468329   -0.563916    1.334439
  H     -2.705915    2.296277    0.771888
  C     -3.357947   -0.831337   -1.377937
  H     -3.374541   -0.053484   -2.153122
  C      4.805704   -1.269244   -1.108536
  H      5.254950   -1.620204   -2.045252
  H      4.835898   -2.103732   -0.400453
  H      5.434431   -0.467933   -0.716341
  C      2.560788   -2.016752   -1.935473
  H      3.061937   -2.400142   -2.832615
  H      1.542966   -1.732188   -2.204810
  H      2.502084   -2.833493   -1.209948
  C      4.680481    1.979802   -0.012340
  H      4.916239    3.046506    0.083978
  H      5.169829    1.620688   -0.922848
  H      5.123446    1.463622    0.844533
  C      2.617881    2.501599   -1.352306
  H      2.906367    3.558914   -1.336615
  H      1.529775    2.443192   -1.410983
  H      3.032951    2.058398   -2.264167
  C      3.156179    0.325190    2.783070
  H      3.624905   -0.113517    3.671755
  H      2.084721    0.431553    2.987984
  H      3.570907    1.327076    2.642068
  C      2.983676   -2.024266    1.875196
  H      3.139448   -2.690345    1.021876
  H      1.922767   -2.073885    2.140278
  H      3.565975   -2.409562    2.720613
  C     -4.681242    1.978525   -0.016373
  H     -5.169268    1.617830   -0.926977
  H     -4.917927    3.045167    0.078302
  H     -5.124772    1.463082    0.840662
  C     -2.617453    2.500423   -1.354472
  H     -3.030239    2.055355   -2.266464
  C     -2.982294   -2.021525    1.878658
  H     -1.529170    2.443643   -1.411239
  H     -2.907637    3.557302   -1.340680
  C     -3.156106    0.329464    2.782654
  H     -1.921474   -2.069894    2.144316
  H     -3.564665   -2.406148    2.724324
  H     -3.137027   -2.688908    1.026165
  C     -3.398186   -0.577432    1.569777
  H     -3.622276   -0.109074    3.672772
  H     -3.573608    1.330095    2.640827
  H     -2.084555    0.438855    2.985621
  C     -4.805869   -1.272290   -1.105425
  H     -5.255612   -1.624537   -2.041419
  H     -5.435110   -0.471325   -0.713333
  H     -4.834472   -2.106207   -0.396602
  C     -2.561058   -2.017888   -1.934324
  H     -2.500954   -2.834229   -1.208460
  H     -1.543733   -1.732464   -2.204653
  H     -3.062606   -2.402180   -2.830854

 Total Charge           Charge          ....    0
 Multiplicity           Mult            ....    1
 Number of Electrons    NEL             ....  238
 Basis Dimension        Dim             .... 1800

ORBITAL ENERGIES
----------------

  NO   OCC          E(Eh)            E(eV)
   0   2.0000     -77.387302     -2105.8155
   1   2.0000     -77.387277     -2105.8149
   2   2.0000     -19.382488      -527.4243
   3   2.0000     -19.380825      -527.3791
   4   2.0000     -19.367088      -527.0053
   5   2.0000     -10.438031      -284.0333
   6   2.0000     -10.437093      -284.0077
   7   2.0000     -10.427996      -283.7602
   8   2.0000     -10.359277      -281.8903
   9   2.0000     -10.359259      -281.8898
  10   2.0000     -10.358977      -281.8821
  11   2.0000     -10.358949      -281.8813
  12   2.0000     -10.357524      -281.8426
  13   2.0000     -10.357511      -281.8422
  14   2.0000     -10.342781      -281.4414
  15   2.0000     -10.342776      -281.4412
  16   2.0000     -10.342189      -281.4253
  17   2.0000     -10.342173      -281.4248
  18   2.0000     -10.340963      -281.3919
  19   2.0000     -10.340947      -281.3915
  20   2.0000     -10.340347      -281.3751
  21   2.0000     -10.340328      -281.3746
  22   2.0000     -10.333611      -281.1919
  23   2.0000     -10.333611      -281.1918
  24   2.0000     -10.330483      -281.1067
  25   2.0000     -10.330475      -281.1065
  26   2.0000      -6.732972      -183.2135
  27   2.0000      -6.732948      -183.2128
  28   2.0000      -4.845470      -131.8519
  29   2.0000      -4.845451      -131.8514
  30   2.0000      -4.845446      -131.8513
  31   2.0000      -4.845428      -131.8508
  32   2.0000      -4.842678      -131.7760
  33   2.0000      -4.842653      -131.7753
  34   2.0000      -3.020098       -82.1811
  35   2.0000      -1.669050       -45.4172
  36   2.0000      -1.667843       -45.3843
  37   2.0000      -1.658420       -45.1279
  38   2.0000      -1.227378       -33.3986
  39   2.0000      -1.226548       -33.3761
  40   2.0000      -1.213277       -33.0149
  41   2.0000      -0.944891       -25.7118
  42   2.0000      -0.944397       -25.6984
  43   2.0000      -0.911232       -24.7959
  44   2.0000      -0.911183       -24.7945
  45   2.0000      -0.908313       -24.7165
  46   2.0000      -0.908273       -24.7154
  47   2.0000      -0.814206       -22.1557
  48   2.0000      -0.813896       -22.1472
  49   2.0000      -0.811443       -22.0805
  50   2.0000      -0.811015       -22.0688
  51   2.0000      -0.803423       -21.8623
  52   2.0000      -0.803091       -21.8532
  53   2.0000      -0.775434       -21.1006
  54   2.0000      -0.772795       -21.0288
  55   2.0000      -0.705394       -19.1947
  56   2.0000      -0.705101       -19.1868
  57   2.0000      -0.704274       -19.1643
  58   2.0000      -0.703110       -19.1326
  59   2.0000      -0.685281       -18.6474
  60   2.0000      -0.653661       -17.7870
  61   2.0000      -0.651699       -17.7336
  62   2.0000      -0.634804       -17.2739
  63   2.0000      -0.633237       -17.2313
  64   2.0000      -0.607006       -16.5175
  65   2.0000      -0.588029       -16.0011
  66   2.0000      -0.585919       -15.9437
  67   2.0000      -0.583542       -15.8790
  68   2.0000      -0.576219       -15.6797
  69   2.0000      -0.571611       -15.5543
  70   2.0000      -0.571442       -15.5497
  71   2.0000      -0.560201       -15.2438
  72   2.0000      -0.552632       -15.0379
  73   2.0000      -0.552396       -15.0315
  74   2.0000      -0.546349       -14.8669
  75   2.0000      -0.545419       -14.8416
  76   2.0000      -0.537010       -14.6128
  77   2.0000      -0.535817       -14.5803
  78   2.0000      -0.533977       -14.5303
  79   2.0000      -0.530620       -14.4389
  80   2.0000      -0.527151       -14.3445
  81   2.0000      -0.526527       -14.3275
  82   2.0000      -0.521763       -14.1979
  83   2.0000      -0.515716       -14.0333
  84   2.0000      -0.513329       -13.9684
  85   2.0000      -0.511224       -13.9111
  86   2.0000      -0.506674       -13.7873
  87   2.0000      -0.502754       -13.6806
  88   2.0000      -0.501237       -13.6394
  89   2.0000      -0.499457       -13.5909
  90   2.0000      -0.498686       -13.5699
  91   2.0000      -0.494274       -13.4499
  92   2.0000      -0.492782       -13.4093
  93   2.0000      -0.487668       -13.2701
  94   2.0000      -0.487536       -13.2665
  95   2.0000      -0.485114       -13.2006
  96   2.0000      -0.484610       -13.1869
  97   2.0000      -0.474080       -12.9004
  98   2.0000      -0.455158       -12.3855
  99   2.0000      -0.455098       -12.3839
 100   2.0000      -0.455018       -12.3817
 101   2.0000      -0.453005       -12.3269
 102   2.0000      -0.450012       -12.2455
 103   2.0000      -0.448728       -12.2105
 104   2.0000      -0.444463       -12.0944
 105   2.0000      -0.443000       -12.0547
 106   2.0000      -0.439356       -11.9555
 107   2.0000      -0.439114       -11.9489
 108   2.0000      -0.437441       -11.9034
 109   2.0000      -0.436983       -11.8909
 110   2.0000      -0.391569       -10.6551
 111   2.0000      -0.389081       -10.5874
 112   2.0000      -0.388803       -10.5799
 113   2.0000      -0.387043       -10.5320
 114   2.0000      -0.385821       -10.4987
 115   2.0000      -0.342620        -9.3232
 116   2.0000      -0.272993        -7.4285
 117   2.0000      -0.270125        -7.3505
 118   2.0000      -0.263058        -7.1582
 119   0.0000       0.026623         0.7244
 120   0.0000       0.032321         0.8795
 121   0.0000       0.034586         0.9411
 122   0.0000       0.036935         1.0050
 123   0.0000       0.040602         1.1048

MULLIKEN ATOMIC CHARGES
-----------------------
   0 W :   -2.671021
   1 C :    1.115081
   2 O :   -0.535184
   3 C :    0.653431
   4 O :   -0.597757
   5 C :    1.308692
   6 O :   -0.558436
   7 H :   -0.018515
   8 H :   -0.016635
   9 P :    0.810446
  10 C :    0.188169
  11 H :    0.651651
  12 C :    0.996500
  13 H :    0.454137
  14 C :    0.298969
  15 H :    0.503244
  16 C :    0.303104
  17 P :    0.810285
  18 H :    0.655941
  19 H :    0.505317
  20 C :    1.000340
  21 H :    0.454772
  22 C :   -1.665326
  23 H :    0.481733
  24 H :    0.330626
  25 H :    0.309322
  26 C :   -1.440861
  27 H :    0.433549
  28 H :    0.250243
  29 H :    0.252102
  30 C :   -1.792319
  31 H :    0.460559
  32 H :    0.324258
  33 H :    0.304928
  34 C :   -1.440128
  35 H :    0.450371
  36 H :    0.185007
  37 H :    0.316749
  38 C :   -1.453910
  39 H :    0.501330
  40 H :    0.242627
  41 H :    0.269219
  42 C :   -1.584145
  43 H :    0.240453
  44 H :    0.250036
  45 H :    0.528190
  46 C :   -1.799363
  47 H :    0.324734
  48 H :    0.461869
  49 H :    0.303897
  50 C :   -1.438418
  51 H :    0.316570
  52 C :   -1.594922
  53 H :    0.184128
  54 H :    0.451283
  55 C :   -1.450787
  56 H :    0.251413
  57 H :    0.531027
  58 H :    0.240518
  59 C :    0.190444
  60 H :    0.503207
  61 H :    0.268470
  62 H :    0.242239
  63 C :   -1.668887
  64 H :    0.481477
  65 H :    0.310370
  66 H :    0.330991
  67 C :   -1.446678
  68 H :    0.252033
  69 H :    0.254162
  70 H :    0.433082
Sum of atomic charges:   -0.0000000

LOEWDIN ATOMIC CHARGES
----------------------
   0 W :    0.202804
   1 C :   -0.281057
   2 O :    0.067123
   3 C :   -0.335992
   4 O :    0.052303
   5 C :   -0.283351
   6 O :    0.061266
   7 H :    0.017252
   8 H :    0.017603
   9 P :    1.068898
  10 C :   -0.381048
  11 H :   -0.025969
  12 C :   -0.333451
  13 H :   -0.015239
  14 C :   -0.367474
  15 H :   -0.027201
  16 C :   -0.367486
  17 P :    1.069127
  18 H :   -0.025991
  19 H :   -0.027126
  20 C :   -0.333460
  21 H :   -0.015241
  22 C :    0.116700
  23 H :   -0.002485
  24 H :   -0.014458
  25 H :   -0.037137
  26 C :    0.106720
  27 H :   -0.002134
  28 H :   -0.049397
  29 H :   -0.022595
  30 C :    0.117595
  31 H :   -0.002734
  32 H :   -0.016356
  33 H :   -0.025541
  34 C :    0.111764
  35 H :   -0.000474
  36 H :   -0.051867
  37 H :   -0.013037
  38 C :    0.114460
  39 H :   -0.003671
  40 H :   -0.030748
  41 H :   -0.022048
  42 C :    0.112446
  43 H :   -0.027784
  44 H :   -0.031756
  45 H :   -0.003090
  46 C :    0.117561
  47 H :   -0.016291
  48 H :   -0.002743
  49 H :   -0.025529
  50 C :    0.111772
  51 H :   -0.013033
  52 C :    0.112372
  53 H :   -0.051872
  54 H :   -0.000487
  55 C :    0.114444
  56 H :   -0.031788
  57 H :   -0.003101
  58 H :   -0.027748
  59 C :   -0.381054
  60 H :   -0.003687
  61 H :   -0.022016
  62 H :   -0.030679
  63 C :    0.116628
  64 H :   -0.002477
  65 H :   -0.037111
  66 H :   -0.014456
  67 C :    0.106698
  68 H :   -0.022587
  69 H :   -0.049336
  70 H :   -0.002145

  Mayer bond orders larger than 0.100000
B(  0-W ,  1-C ) :   1.2464 B(  0-W ,  3-C ) :   1.5983 B(  0-W ,  5-C ) :   1.2644
B(  0-W ,  7-H ) :   0.6555 B(  0-W ,  8-H ) :   0.6720 B(  0-W , 14-C ) :   0.1507
B(  0-W , 16-C ) :   0.1475 B(  0-W , 38-C ) :   0.1186 B(  0-W , 42-C ) :   0.1123
B(  0-W , 52-C ) :   0.1106 B(  0-W , 55-C ) :   0.1153 B(  1-C ,  2-O ) :   1.6999
B(  1-C ,  3-C ) :  -0.2192 B(  1-C ,  5-C ) :   0.1638 B(  3-C ,  4-O ) :   1.5929
B(  3-C ,  5-C ) :  -0.1507 B(  3-C ,  9-P ) :   0.2930 B(  3-C , 17-P ) :   0.2935
B(  5-C ,  6-O ) :   1.7303 B(  5-C ,  7-H ) :  -0.1067 B(  5-C ,  8-H ) :  -0.1106
B(  7-H ,  8-H ) :   1.0825 B(  7-H , 12-C ) :   0.1160 B(  7-H , 20-C ) :  -0.1151
B(  7-H , 38-C ) :   0.1258 B(  8-H , 12-C ) :  -0.1204 B(  8-H , 20-C ) :   0.1094
B(  8-H , 55-C ) :   0.1204 B(  9-P , 10-C ) :   0.8103 B(  9-P , 12-C ) :   0.4034
B(  9-P , 14-C ) :   0.6236 B(  9-P , 17-P ) :  -0.3580 B(  9-P , 20-C ) :   0.1112
B(  9-P , 26-C ) :   0.1584 B(  9-P , 34-C ) :  -0.1128 B(  9-P , 38-C ) :  -0.2368
B( 10-C , 11-H ) :   0.4838 B( 10-C , 12-C ) :   0.1386 B( 10-C , 14-C ) :   0.4211
B( 10-C , 38-C ) :   0.3782 B( 10-C , 40-H ) :  -0.1291 B( 10-C , 42-C ) :   0.3436
B( 10-C , 43-H ) :  -0.1110 B( 10-C , 44-H ) :  -0.1455 B( 12-C , 13-H ) :   0.7603
B( 12-C , 14-C ) :   0.3098 B( 12-C , 17-P ) :   0.1109 B( 12-C , 22-C ) :   0.1360
B( 12-C , 24-H ) :  -0.1897 B( 12-C , 25-H ) :  -0.1229 B( 12-C , 26-C ) :   0.2319
B( 12-C , 29-H ) :  -0.2032 B( 14-C , 15-H ) :   0.7828 B( 14-C , 32-H ) :  -0.1652
B( 14-C , 33-H ) :  -0.1886 B( 14-C , 34-C ) :   0.2145 B( 14-C , 37-H ) :  -0.1265
B( 16-C , 17-P ) :   0.6239 B( 16-C , 19-H ) :   0.7783 B( 16-C , 20-C ) :   0.3071
B( 16-C , 47-H ) :  -0.1657 B( 16-C , 49-H ) :  -0.1895 B( 16-C , 50-C ) :   0.2148
B( 16-C , 51-H ) :  -0.1272 B( 16-C , 59-C ) :   0.4226 B( 17-P , 20-C ) :   0.4075
B( 17-P , 50-C ) :  -0.1137 B( 17-P , 55-C ) :  -0.2239 B( 17-P , 59-C ) :   0.7923
B( 17-P , 67-C ) :   0.1602 B( 18-H , 59-C ) :   0.4799 B( 20-C , 21-H ) :   0.7602
B( 20-C , 59-C ) :   0.1382 B( 20-C , 63-C ) :   0.1319 B( 20-C , 65-H ) :  -0.1233
B( 20-C , 66-H ) :  -0.1891 B( 20-C , 67-C ) :   0.2301 B( 20-C , 68-H ) :  -0.2021
B( 22-C , 23-H ) :   0.8106 B( 22-C , 24-H ) :   1.1430 B( 22-C , 25-H ) :   1.0070
B( 26-C , 27-H ) :   0.8842 B( 26-C , 28-H ) :   1.0078 B( 26-C , 29-H ) :   1.1656
B( 30-C , 31-H ) :   0.8270 B( 30-C , 32-H ) :   1.1007 B( 30-C , 33-H ) :   1.0574
B( 34-C , 35-H ) :   0.8615 B( 34-C , 36-H ) :   0.9700 B( 34-C , 37-H ) :   1.1032
B( 38-C , 39-H ) :   0.7758 B( 38-C , 40-H ) :   1.0679 B( 38-C , 41-H ) :   1.0396
B( 42-C , 43-H ) :   1.0485 B( 42-C , 44-H ) :   1.1115 B( 42-C , 45-H ) :   0.7457
B( 43-H , 44-H ) :   0.1136 B( 46-C , 47-H ) :   1.0995 B( 46-C , 48-H ) :   0.8242
B( 46-C , 49-H ) :   1.0584 B( 50-C , 51-H ) :   1.1044 B( 50-C , 53-H ) :   0.9691
B( 50-C , 54-H ) :   0.8617 B( 52-C , 56-H ) :   1.1125 B( 52-C , 57-H ) :   0.7410
B( 52-C , 58-H ) :   1.0505 B( 52-C , 59-C ) :   0.3341 B( 55-C , 59-C ) :   0.3795
B( 55-C , 60-H ) :   0.7737 B( 55-C , 61-H ) :   1.0401 B( 55-C , 62-H ) :   1.0679
B( 56-H , 58-H ) :   0.1132 B( 56-H , 59-C ) :  -0.1460 B( 58-H , 59-C ) :  -0.1117
B( 59-C , 62-H ) :  -0.1285 B( 63-C , 64-H ) :   0.8119 B( 63-C , 65-H ) :   1.0056
B( 63-C , 66-H ) :   1.1417 B( 67-C , 68-H ) :   1.1631 B( 67-C , 69-H ) :   1.0083
B( 67-C , 70-H ) :   0.8841

FINAL SINGLE POINT ENERGY     -1802.145621173260

DIPOLE MOMENT
-------------
                                X             Y             Z
Electronic contribution:      0.02003      -1.49592      17.17615
Nuclear contribution   :     -0.02072       1.50197     -16.46211
                        -----------------------------------------
Total Dipole Moment    :     -0.00069       0.00606       0.71404
                        -----------------------------------------
Magnitude (a.u.)       :      0.71407
Magnitude (Debye)      :      1.81502

Rotational constants in cm-1:     0.008070     0.003719     0.003518
Rotational constants in MHz :   241.945038   111.491092   105.477311

                             ****ORCA TERMINATED NORMALLY****
TOTAL RUN TIME: 0 days 2 hours 26 minutes 6 seconds 746 msec
