                         Program Version 4.2.0 -  RELEASE  -
|  1> #
|  2> # MOR20_i2 wB97M-V/Def2-TZVPPD
|  3> #
|  4> ! wb97m-v def2-tzvppd def2/jk grid4 nofinalgrid
|  5>
|  6> *xyz 0 1
|  7> I        0.000000    0.000000    1.341554
|  8> I        0.000000    0.000000   -1.341554
|  9> *
| 10>
| 11> %maxcore 5000
| 12>
| 13> %pal
| 14> nprocs = 24
| 15> end
| 16>
| 17>
| 18>                          ****END OF INPUT****

CARTESIAN COORDINATES (ANGSTROEM)
---------------------------------
  I      0.000000    0.000000    1.341554
  I      0.000000    0.000000   -1.341554

 Total Charge           Charge          ....    0
 Multiplicity           Mult            ....    1
 Number of Electrons    NEL             ....   50
 Basis Dimension        Dim             ....  118

ORBITAL ENERGIES
----------------

  NO   OCC          E(Eh)            E(eV)
   0   2.0000      -7.043516      -191.6638
   1   2.0000      -7.043508      -191.6636
   2   2.0000      -5.056091      -137.5832
   3   2.0000      -5.055986      -137.5804
   4   2.0000      -5.039954      -137.1441
   5   2.0000      -5.039954      -137.1441
   6   2.0000      -5.039943      -137.1438
   7   2.0000      -5.039943      -137.1438
   8   2.0000      -2.076350       -56.5003
   9   2.0000      -2.072084       -56.3843
  10   2.0000      -2.069965       -56.3266
  11   2.0000      -2.069965       -56.3266
  12   2.0000      -2.068598       -56.2894
  13   2.0000      -2.068598       -56.2894
  14   2.0000      -2.055911       -55.9442
  15   2.0000      -2.055888       -55.9436
  16   2.0000      -2.055826       -55.9419
  17   2.0000      -2.055803       -55.9412
  18   2.0000      -0.874812       -23.8048
  19   2.0000      -0.781773       -21.2731
  20   2.0000      -0.459162       -12.4944
  21   2.0000      -0.420415       -11.4401
  22   2.0000      -0.420415       -11.4401
  23   2.0000      -0.350695        -9.5429
  24   2.0000      -0.350695        -9.5429
  25   0.0000      -0.069224        -1.8837
  26   0.0000       0.027260         0.7418
  27   0.0000       0.036510         0.9935
  28   0.0000       0.036510         0.9935
  29   0.0000       0.040179         1.0933

MULLIKEN ATOMIC CHARGES
-----------------------
   0 I :   -0.000002
   1 I :    0.000002
Sum of atomic charges:   -0.0000000

LOEWDIN ATOMIC CHARGES
----------------------
   0 I :   -0.000000
   1 I :    0.000000

  Mayer bond orders larger than 0.100000
B(  0-I ,  1-I ) :   0.9991

FINAL SINGLE POINT ENERGY      -595.396625162034

DIPOLE MOMENT
-------------
                                X             Y             Z
Electronic contribution:     -0.00000      -0.00000       0.00000
Nuclear contribution   :      0.00000       0.00000       0.00000
                        -----------------------------------------
Total Dipole Moment    :     -0.00000      -0.00000       0.00000
                        -----------------------------------------
Magnitude (a.u.)       :      0.00000
Magnitude (Debye)      :      0.00000

Rotational constants in cm-1:     0.000000     0.036905     0.036905
Rotational constants in MHz :     0.000000  1106.393636  1106.393636

                             ****ORCA TERMINATED NORMALLY****
TOTAL RUN TIME: 0 days 0 hours 0 minutes 7 seconds 385 msec
