                         Program Version 4.2.0 -  RELEASE  -
|  1> #
|  2> # MOR24_pme3 wB97M-V/Def2-TZVPPD
|  3> #
|  4> ! wb97m-v def2-tzvppd def2/jk grid4 nofinalgrid
|  5>
|  6> *xyz 0 1
|  7> P        0.000014   -0.000022   -0.608033
|  8> C        1.496142   -0.644859    0.281510
|  9> H        1.381991   -0.595756    1.371521
| 10> H        2.374450   -0.059896   -0.010082
| 11> H        1.674284   -1.684941   -0.010215
| 12> C       -0.189596    1.618079    0.281483
| 13> H       -0.175035    1.494773    1.371519
| 14> H       -1.135286    2.086341   -0.010098
| 15> H        0.622176    2.292253   -0.010285
| 16> C       -1.306577   -0.973225    0.281488
| 17> H       -1.206743   -0.899098    1.371498
| 18> H       -1.239562   -2.026308   -0.010273
| 19> H       -2.296301   -0.607013   -0.009976
| 20> *
| 21>
| 22> %maxcore 5000
| 23>
| 24> %pal
| 25> nprocs = 24
| 26> end
| 27>
| 28>
| 29>                          ****END OF INPUT****

CARTESIAN COORDINATES (ANGSTROEM)
---------------------------------
  P      0.000014   -0.000022   -0.608033
  C      1.496142   -0.644859    0.281510
  H      1.381991   -0.595756    1.371521
  H      2.374450   -0.059896   -0.010082
  H      1.674284   -1.684941   -0.010215
  C     -0.189596    1.618079    0.281483
  H     -0.175035    1.494773    1.371519
  H     -1.135286    2.086341   -0.010098
  H      0.622176    2.292253   -0.010285
  C     -1.306577   -0.973225    0.281488
  H     -1.206743   -0.899098    1.371498
  H     -1.239562   -2.026308   -0.010273
  H     -2.296301   -0.607013   -0.009976

 Total Charge           Charge          ....    0
 Multiplicity           Mult            ....    1
 Number of Electrons    NEL             ....   42
 Basis Dimension        Dim             ....  312

ORBITAL ENERGIES
----------------

  NO   OCC          E(Eh)            E(eV)
   0   2.0000     -77.360530     -2105.0870
   1   2.0000     -10.337463      -281.2967
   2   2.0000     -10.337461      -281.2966
   3   2.0000     -10.337453      -281.2964
   4   2.0000      -6.707989      -182.5337
   5   2.0000      -4.820639      -131.1763
   6   2.0000      -4.820638      -131.1762
   7   2.0000      -4.816213      -131.0558
   8   2.0000      -0.881414       -23.9845
   9   2.0000      -0.806839       -21.9552
  10   2.0000      -0.806834       -21.9551
  11   2.0000      -0.640792       -17.4368
  12   2.0000      -0.544245       -14.8097
  13   2.0000      -0.529310       -14.4033
  14   2.0000      -0.529298       -14.4029
  15   2.0000      -0.499518       -13.5926
  16   2.0000      -0.499511       -13.5924
  17   2.0000      -0.485404       -13.2085
  18   2.0000      -0.418412       -11.3856
  19   2.0000      -0.418406       -11.3854
  20   2.0000      -0.316998        -8.6260
  21   0.0000       0.043047         1.1714
  22   0.0000       0.056586         1.5398
  23   0.0000       0.056593         1.5400
  24   0.0000       0.078106         2.1254
  25   0.0000       0.107391         2.9223

MULLIKEN ATOMIC CHARGES
-----------------------
   0 P :    0.077584
   1 C :   -0.869797
   2 H :    0.282871
   3 H :    0.280307
   4 H :    0.280472
   5 C :   -0.867844
   6 H :    0.281802
   7 H :    0.280112
   8 H :    0.280475
   9 C :   -0.869174
  10 H :    0.282385
  11 H :    0.280565
  12 H :    0.280243
Sum of atomic charges:    0.0000000

LOEWDIN ATOMIC CHARGES
----------------------
   0 P :    0.865624
   1 C :   -0.098051
   2 H :   -0.058601
   3 H :   -0.065942
   4 H :   -0.065945
   5 C :   -0.098052
   6 H :   -0.058589
   7 H :   -0.065945
   8 H :   -0.065954
   9 C :   -0.098041
  10 H :   -0.058603
  11 H :   -0.065953
  12 H :   -0.065949

  Mayer bond orders larger than 0.100000
B(  0-P ,  1-C ) :   0.8464 B(  0-P ,  5-C ) :   0.8452 B(  0-P ,  9-C ) :   0.8464
B(  1-C ,  2-H ) :   0.8952 B(  1-C ,  3-H ) :   0.9556 B(  1-C ,  4-H ) :   0.9554
B(  5-C ,  6-H ) :   0.8962 B(  5-C ,  7-H ) :   0.9554 B(  5-C ,  8-H ) :   0.9552
B(  9-C , 10-H ) :   0.8957 B(  9-C , 11-H ) :   0.9554 B(  9-C , 12-H ) :   0.9554

FINAL SINGLE POINT ENERGY      -461.052058964421

DIPOLE MOMENT
-------------
                                X             Y             Z
Electronic contribution:      0.00013      -0.00039      -4.33600
Nuclear contribution   :     -0.00004       0.00039       4.80319
                        -----------------------------------------
Total Dipole Moment    :      0.00009       0.00000       0.46719
                        -----------------------------------------
Magnitude (a.u.)       :      0.46719
Magnitude (Debye)      :      1.18751

Rotational constants in cm-1:     0.191522     0.191510     0.123399
Rotational constants in MHz :  5741.693239  5741.320508  3699.411170

                             ****ORCA TERMINATED NORMALLY****
TOTAL RUN TIME: 0 days 0 hours 0 minutes 21 seconds 752 msec
