                         Program Version 4.2.0 -  RELEASE  -
|  1> #
|  2> # MOR29_pr11 wB97M-V/Def2-TZVPPD
|  3> #
|  4> ! wb97m-v def2-tzvppd def2/jk grid4 nofinalgrid
|  5>
|  6> *xyz 0 1
|  7> C       -1.039290   -2.639432    0.178033
|  8> C       -2.178017   -3.305635   -0.258724
|  9> C       -3.296391   -2.550827   -0.605540
| 10> C       -3.231094   -1.166811   -0.503382
| 11> H       -0.140242   -3.178187    0.457229
| 12> H       -2.180740   -4.388297   -0.324253
| 13> H       -4.206388   -3.031472   -0.950846
| 14> H       -4.092575   -0.563880   -0.765153
| 15> N       -0.970920   -1.306381    0.272680
| 16> C       -2.050199   -0.559703   -0.062217
| 17> C       -1.896627    0.903347    0.053727
| 18> N       -0.715899    1.344389    0.547476
| 19> C       -0.493208    2.660516    0.650101
| 20> C       -2.657172    3.172580   -0.229603
| 21> C       -1.435330    3.611046    0.276469
| 22> H        0.481431    2.944320    1.031789
| 23> H       -1.207232    4.666962    0.373432
| 24> C       -2.888209    1.807210   -0.342538
| 25> H       -3.826394    1.449184   -0.749672
| 26> H       -3.416704    3.882938   -0.540755
| 27> Pd       0.796966   -0.183618    0.920224
| 28> C        2.296006    1.038742    1.594093
| 29> H        1.829551    1.776866    2.255021
| 30> H        2.734263    1.506656    0.710942
| 31> H        3.050202    0.480142    2.149825
| 32> C        2.162541   -1.690695    1.159536
| 33> H        3.086547   -1.399047    0.660601
| 34> H        1.744149   -2.568037    0.656862
| 35> H        2.334771   -1.896294    2.218292
| 36> I        1.451603    0.093477   -1.772045
| 37> C        0.284011   -0.444486    2.913651
| 38> H       -0.123661   -1.453796    3.016265
| 39> H       -0.476481    0.304111    3.153737
| 40> H        1.159721   -0.321172    3.551993
| 41> *
| 42>
| 43> %maxcore 5000
| 44>
| 45> %pal
| 46> nprocs = 24
| 47> end
| 48>
| 49>
| 50>                          ****END OF INPUT****

CARTESIAN COORDINATES (ANGSTROEM)
---------------------------------
  C     -1.039290   -2.639432    0.178033
  C     -2.178017   -3.305635   -0.258724
  C     -3.296391   -2.550827   -0.605540
  C     -3.231094   -1.166811   -0.503382
  H     -0.140242   -3.178187    0.457229
  H     -2.180740   -4.388297   -0.324253
  H     -4.206388   -3.031472   -0.950846
  H     -4.092575   -0.563880   -0.765153
  N     -0.970920   -1.306381    0.272680
  C     -2.050199   -0.559703   -0.062217
  C     -1.896627    0.903347    0.053727
  N     -0.715899    1.344389    0.547476
  C     -0.493208    2.660516    0.650101
  C     -2.657172    3.172580   -0.229603
  C     -1.435330    3.611046    0.276469
  H      0.481431    2.944320    1.031789
  H     -1.207232    4.666962    0.373432
  C     -2.888209    1.807210   -0.342538
  H     -3.826394    1.449184   -0.749672
  H     -3.416704    3.882938   -0.540755
  Pd     0.796966   -0.183618    0.920224
  C      2.296006    1.038742    1.594093
  H      1.829551    1.776866    2.255021
  H      2.734263    1.506656    0.710942
  H      3.050202    0.480142    2.149825
  C      2.162541   -1.690695    1.159536
  H      3.086547   -1.399047    0.660601
  H      1.744149   -2.568037    0.656862
  H      2.334771   -1.896294    2.218292
  I      1.451603    0.093477   -1.772045
  C      0.284011   -0.444486    2.913651
  H     -0.123661   -1.453796    3.016265
  H     -0.476481    0.304111    3.153737
  H      1.159721   -0.321172    3.551993

 Total Charge           Charge          ....    0
 Multiplicity           Mult            ....    1
 Number of Electrons    NEL             ....  152
 Basis Dimension        Dim             ....  959

ORBITAL ENERGIES
----------------

  NO   OCC          E(Eh)            E(eV)
   0   2.0000     -14.565710      -396.3531
   1   2.0000     -14.564929      -396.3319
   2   2.0000     -10.436860      -284.0014
   3   2.0000     -10.436032      -283.9789
   4   2.0000     -10.419735      -283.5354
   5   2.0000     -10.418478      -283.5012
   6   2.0000     -10.402743      -283.0730
   7   2.0000     -10.401765      -283.0464
   8   2.0000     -10.395618      -282.8791
   9   2.0000     -10.394837      -282.8579
  10   2.0000     -10.390678      -282.7447
  11   2.0000     -10.389508      -282.7129
  12   2.0000     -10.332619      -281.1649
  13   2.0000     -10.329167      -281.0709
  14   2.0000     -10.327656      -281.0298
  15   2.0000      -6.916176      -188.1987
  16   2.0000      -4.920906      -133.9046
  17   2.0000      -4.916680      -133.7897
  18   2.0000      -4.916599      -133.7875
  19   2.0000      -3.645441       -99.1975
  20   2.0000      -2.317926       -63.0740
  21   2.0000      -2.314312       -62.9756
  22   2.0000      -2.314021       -62.9677
  23   2.0000      -1.940449       -52.8023
  24   2.0000      -1.939144       -52.7668
  25   2.0000      -1.939067       -52.7647
  26   2.0000      -1.935462       -52.6666
  27   2.0000      -1.935438       -52.6659
  28   2.0000      -1.130923       -30.7740
  29   2.0000      -1.105364       -30.0785
  30   2.0000      -0.971621       -26.4391
  31   2.0000      -0.963047       -26.2058
  32   2.0000      -0.959351       -26.1053
  33   2.0000      -0.902653       -24.5624
  34   2.0000      -0.814058       -22.1516
  35   2.0000      -0.804730       -21.8978
  36   2.0000      -0.802822       -21.8459
  37   2.0000      -0.776267       -21.1233
  38   2.0000      -0.775396       -21.0996
  39   2.0000      -0.765040       -20.8178
  40   2.0000      -0.757563       -20.6143
  41   2.0000      -0.714722       -19.4486
  42   2.0000      -0.695242       -18.9185
  43   2.0000      -0.651302       -17.7228
  44   2.0000      -0.648758       -17.6536
  45   2.0000      -0.626471       -17.0471
  46   2.0000      -0.609812       -16.5938
  47   2.0000      -0.586655       -15.9637
  48   2.0000      -0.581151       -15.8139
  49   2.0000      -0.574701       -15.6384
  50   2.0000      -0.564066       -15.3490
  51   2.0000      -0.554814       -15.0973
  52   2.0000      -0.545960       -14.8563
  53   2.0000      -0.528870       -14.3913
  54   2.0000      -0.520848       -14.1730
  55   2.0000      -0.516098       -14.0437
  56   2.0000      -0.512321       -13.9410
  57   2.0000      -0.499861       -13.6019
  58   2.0000      -0.480318       -13.0701
  59   2.0000      -0.475140       -12.9292
  60   2.0000      -0.472060       -12.8454
  61   2.0000      -0.470515       -12.8034
  62   2.0000      -0.457055       -12.4371
  63   2.0000      -0.438929       -11.9439
  64   2.0000      -0.432914       -11.7802
  65   2.0000      -0.424169       -11.5422
  66   2.0000      -0.421165       -11.4605
  67   2.0000      -0.395175       -10.7533
  68   2.0000      -0.391596       -10.6559
  69   2.0000      -0.390421       -10.6239
  70   2.0000      -0.370609       -10.0848
  71   2.0000      -0.358958        -9.7677
  72   2.0000      -0.357892        -9.7387
  73   2.0000      -0.288372        -7.8470
  74   2.0000      -0.280020        -7.6197
  75   2.0000      -0.279520        -7.6061
  76   0.0000      -0.026162        -0.7119
  77   0.0000       0.005380         0.1464
  78   0.0000       0.017081         0.4648
  79   0.0000       0.020684         0.5628
  80   0.0000       0.028848         0.7850

MULLIKEN ATOMIC CHARGES
-----------------------
   0 C :    0.194778
   1 C :   -0.402182
   2 C :   -0.146300
   3 C :   -0.467083
   4 H :   -0.003077
   5 H :    0.171751
   6 H :    0.179939
   7 H :    0.041720
   8 N :    0.397107
   9 C :    0.717858
  10 C :    0.196963
  11 N :    0.536698
  12 C :    0.115583
  13 C :   -0.207727
  14 C :   -0.355327
  15 H :    0.013174
  16 H :    0.160661
  17 C :   -0.453644
  18 H :    0.043705
  19 H :    0.176420
  20 Pd:   -0.524147
  21 C :   -0.986777
  22 H :    0.367412
  23 H :    0.232194
  24 H :    0.403385
  25 C :   -0.897963
  26 H :    0.341652
  27 H :    0.275604
  28 H :    0.324645
  29 I :   -0.440401
  30 C :   -0.993692
  31 H :    0.313699
  32 H :    0.268820
  33 H :    0.404553
Sum of atomic charges:    0.0000000

LOEWDIN ATOMIC CHARGES
----------------------
   0 C :   -0.018121
   1 C :    0.062596
   2 C :    0.054526
   3 C :    0.086169
   4 H :    0.000357
   5 H :    0.009499
   6 H :    0.013569
   7 H :    0.001793
   8 N :    0.024458
   9 C :   -0.175968
  10 C :   -0.182744
  11 N :    0.014560
  12 C :   -0.020172
  13 C :    0.055234
  14 C :    0.063199
  15 H :    0.003894
  16 H :    0.009655
  17 C :    0.086407
  18 H :    0.001887
  19 H :    0.013558
  20 Pd:    0.668698
  21 C :    0.026284
  22 H :   -0.091692
  23 H :   -0.116749
  24 H :   -0.084407
  25 C :    0.019339
  26 H :   -0.101211
  27 H :   -0.107196
  28 H :   -0.084299
  29 I :   -0.040506
  30 C :    0.077715
  31 H :   -0.089867
  32 H :   -0.089028
  33 H :   -0.091437

  Mayer bond orders larger than 0.100000
B(  0-C ,  1-C ) :   1.1437 B(  0-C ,  4-H ) :   1.0854 B(  0-C ,  8-N ) :   1.4874
B(  0-C , 20-Pd) :  -0.1195 B(  1-C ,  2-C ) :   1.1140 B(  1-C ,  5-H ) :   1.0456
B(  1-C ,  8-N ) :  -0.1757 B(  1-C , 20-Pd) :   0.1230 B(  2-C ,  3-C ) :   1.1466
B(  2-C ,  6-H ) :   1.0458 B(  2-C ,  8-N ) :   0.1286 B(  3-C ,  7-H ) :   1.2180
B(  3-C ,  8-N ) :  -0.3138 B(  3-C ,  9-C ) :   0.6582 B(  3-C , 10-C ) :  -0.3139
B(  3-C , 20-Pd) :   0.1610 B(  7-H ,  9-C ) :  -0.2715 B(  8-N ,  9-C ) :   1.3972
B(  8-N , 10-C ) :   0.1732 B(  8-N , 11-N ) :  -0.1181 B(  8-N , 20-Pd) :   0.3491
B(  9-C , 10-C ) :   1.0271 B(  9-C , 11-N ) :   0.2276 B(  9-C , 17-C ) :  -0.4298
B(  9-C , 20-Pd) :  -0.1728 B(  9-C , 29-I ) :  -0.1011 B( 10-C , 11-N ) :   1.3660
B( 10-C , 17-C ) :   0.7883 B( 10-C , 18-H ) :  -0.2787 B( 11-N , 12-C ) :   1.4851
B( 11-N , 13-C ) :   0.1293 B( 11-N , 14-C ) :  -0.2208 B( 11-N , 17-C ) :  -0.3588
B( 11-N , 20-Pd) :   0.2876 B( 11-N , 30-C ) :  -0.1105 B( 12-C , 14-C ) :   1.1477
B( 12-C , 15-H ) :   1.1148 B( 13-C , 14-C ) :   1.1202 B( 13-C , 17-C ) :   1.1431
B( 13-C , 19-H ) :   1.0512 B( 14-C , 16-H ) :   1.0494 B( 14-C , 20-Pd) :   0.1046
B( 17-C , 18-H ) :   1.2094 B( 17-C , 20-Pd) :   0.1746 B( 20-Pd, 21-C ) :   0.7775
B( 20-Pd, 25-C ) :   0.7333 B( 20-Pd, 29-I ) :   0.9115 B( 20-Pd, 30-C ) :   0.6831
B( 20-Pd, 32-H ) :   0.1248 B( 21-C , 22-H ) :   0.9111 B( 21-C , 23-H ) :   1.0467
B( 21-C , 24-H ) :   0.8546 B( 21-C , 29-I ) :  -0.1057 B( 21-C , 30-C ) :  -0.1177
B( 23-H , 29-I ) :   0.1120 B( 25-C , 26-H ) :   0.9618 B( 25-C , 27-H ) :   0.9237
B( 25-C , 28-H ) :   0.9809 B( 25-C , 30-C ) :  -0.1235 B( 29-I , 30-C ) :   0.1276
B( 30-C , 31-H ) :   0.9504 B( 30-C , 32-H ) :   1.0044 B( 30-C , 33-H ) :   0.8971

FINAL SINGLE POINT ENERGY     -1040.645111264287

DIPOLE MOMENT
-------------
                                X             Y             Z
Electronic contribution:    145.15010      -3.88287     -70.62357
Nuclear contribution   :   -148.61747       4.04670      71.83695
                        -----------------------------------------
Total Dipole Moment    :     -3.46737       0.16383       1.21338
                        -----------------------------------------
Magnitude (a.u.)       :      3.67720
Magnitude (Debye)      :      9.34669

Rotational constants in cm-1:     0.010327     0.008787     0.007812
Rotational constants in MHz :   309.600948   263.417504   234.204311

                             ****ORCA TERMINATED NORMALLY****
TOTAL RUN TIME: 0 days 0 hours 36 minutes 49 seconds 37 msec
