                         Program Version 4.2.0 -  RELEASE  -
|  1> #
|  2> # MOR23_phseh wB97M-V/Def2-TZVPPD
|  3> #
|  4> ! wb97m-v def2-tzvppd def2/jk grid4 nofinalgrid
|  5>
|  6> *xyz 0 1
|  7> C        0.099641    0.015172    0.000002
|  8> C        0.811159    1.219454    0.000004
|  9> C        2.205438    1.200000    0.000001
| 10> C        2.898295   -0.010923    0.000001
| 11> C        2.184022   -1.209573    0.000001
| 12> C        0.790170   -1.202154    0.000003
| 13> Se      -1.821201   -0.043502   -0.000002
| 14> H       -1.984560    1.419830   -0.000002
| 15> H        0.283594    2.168662    0.000009
| 16> H        2.749671    2.140448   -0.000003
| 17> H        3.983980   -0.020380    0.000003
| 18> H        2.711288   -2.159513   -0.000002
| 19> H        0.244496   -2.141840    0.000007
| 20> *
| 21>
| 22> %maxcore 5000
| 23>
| 24> %pal
| 25> nprocs = 24
| 26> end
| 27>
| 28>
| 29>                          ****END OF INPUT****

CARTESIAN COORDINATES (ANGSTROEM)
---------------------------------
  C      0.099641    0.015172    0.000002
  C      0.811159    1.219454    0.000004
  C      2.205438    1.200000    0.000001
  C      2.898295   -0.010923    0.000001
  C      2.184022   -1.209573    0.000001
  C      0.790170   -1.202154    0.000003
  Se    -1.821201   -0.043502   -0.000002
  H     -1.984560    1.419830   -0.000002
  H      0.283594    2.168662    0.000009
  H      2.749671    2.140448   -0.000003
  H      3.983980   -0.020380    0.000003
  H      2.711288   -2.159513   -0.000002
  H      0.244496   -2.141840    0.000007

 Total Charge           Charge          ....    0
 Multiplicity           Mult            ....    1
 Number of Electrons    NEL             ....   76
 Basis Dimension        Dim             ....  381

ORBITAL ENERGIES
----------------

  NO   OCC          E(Eh)            E(eV)
   0   2.0000    -454.532603    -12368.4609
   1   2.0000     -58.385209     -1588.7423
   2   2.0000     -52.313438     -1423.5210
   3   2.0000     -52.312272     -1423.4893
   4   2.0000     -52.310194     -1423.4327
   5   2.0000     -10.393520      -282.8220
   6   2.0000     -10.361747      -281.9575
   7   2.0000     -10.361288      -281.9450
   8   2.0000     -10.360579      -281.9257
   9   2.0000     -10.360464      -281.9226
  10   2.0000     -10.356087      -281.8035
  11   2.0000      -8.017486      -218.1669
  12   2.0000      -5.921953      -161.1445
  13   2.0000      -5.917617      -161.0265
  14   2.0000      -5.909932      -160.8174
  15   2.0000      -2.243815       -61.0573
  16   2.0000      -2.243080       -61.0373
  17   2.0000      -2.236504       -60.8584
  18   2.0000      -2.233122       -60.7663
  19   2.0000      -2.232225       -60.7419
  20   2.0000      -0.995199       -27.0807
  21   2.0000      -0.899293       -24.4710
  22   2.0000      -0.880247       -23.9527
  23   2.0000      -0.814958       -22.1761
  24   2.0000      -0.732773       -19.9398
  25   2.0000      -0.710945       -19.3458
  26   2.0000      -0.632876       -17.2214
  27   2.0000      -0.574226       -15.6255
  28   2.0000      -0.567105       -15.4317
  29   2.0000      -0.536423       -14.5968
  30   2.0000      -0.514547       -14.0015
  31   2.0000      -0.497320       -13.5328
  32   2.0000      -0.470673       -12.8077
  33   2.0000      -0.453271       -12.3341
  34   2.0000      -0.420733       -11.4487
  35   2.0000      -0.390587       -10.6284
  36   2.0000      -0.355583        -9.6759
  37   2.0000      -0.307138        -8.3577
  38   0.0000       0.027042         0.7359
  39   0.0000       0.033406         0.9090
  40   0.0000       0.039934         1.0866
  41   0.0000       0.044069         1.1992
  42   0.0000       0.050967         1.3869

MULLIKEN ATOMIC CHARGES
-----------------------
   0 C :    0.314158
   1 C :    0.001161
   2 C :   -0.219126
   3 C :   -0.272352
   4 C :   -0.176290
   5 C :   -0.222880
   6 Se:   -0.010807
   7 H :    0.023856
   8 H :    0.040205
   9 H :    0.131365
  10 H :    0.158869
  11 H :    0.135277
  12 H :    0.096564
Sum of atomic charges:    0.0000000

LOEWDIN ATOMIC CHARGES
----------------------
   0 C :   -0.571588
   1 C :   -0.045558
   2 C :    0.007868
   3 C :    0.004550
   4 C :    0.007426
   5 C :   -0.057987
   6 Se:    0.917069
   7 H :   -0.250819
   8 H :   -0.010694
   9 H :    0.002841
  10 H :   -0.001076
  11 H :    0.002984
  12 H :   -0.005017

  Mayer bond orders larger than 0.100000
B(  0-C ,  1-C ) :   0.8558 B(  0-C ,  5-C ) :   0.9992 B(  0-C ,  6-Se) :   1.1309
B(  0-C ,  8-H ) :  -0.2236 B(  0-C , 12-H ) :  -0.1804 B(  1-C ,  2-C ) :   1.2496
B(  1-C ,  6-Se) :  -0.1026 B(  1-C ,  8-H ) :   1.1317 B(  2-C ,  3-C ) :   1.1716
B(  2-C ,  9-H ) :   1.0803 B(  3-C ,  4-C ) :   1.1611 B(  3-C , 10-H ) :   1.0398
B(  4-C ,  5-C ) :   1.2437 B(  4-C , 11-H ) :   1.0802 B(  5-C , 12-H ) :   1.0986
B(  6-Se,  7-H ) :   0.9918

FINAL SINGLE POINT ENERGY     -2633.647609364280

DIPOLE MOMENT
-------------
                                X             Y             Z
Electronic contribution:    -25.04744      -1.51281      -0.00003
Nuclear contribution   :     25.40592       1.71219       0.00003
                        -----------------------------------------
Total Dipole Moment    :      0.35848       0.19939       0.00000
                        -----------------------------------------
Magnitude (a.u.)       :      0.41020
Magnitude (Debye)      :      1.04265

Rotational constants in cm-1:     0.185431     0.032154     0.027403
Rotational constants in MHz :  5559.086830   963.964760   821.511792

                             ****ORCA TERMINATED NORMALLY****
TOTAL RUN TIME: 0 days 0 hours 1 minutes 4 seconds 309 msec
