                         Program Version 4.2.0 -  RELEASE  -
|  1> #
|  2> # MOR26_pr05 wB97M-V/Def2-TZVPPD
|  3> #
|  4> ! wb97m-v def2-tzvppd def2/jk grid4 nofinalgrid
|  5>
|  6> *xyz 0 1
|  7> Mn       0.144445   -0.000220    0.050119
|  8> O       -2.125838   -0.018069    2.024989
|  9> C       -1.261969   -0.011297    1.274333
| 10> C        1.407998   -0.004194    1.401883
| 11> O        2.195378   -0.006691    2.240943
| 12> C        1.458789    0.011243   -1.252981
| 13> O        2.260044    0.018413   -2.075843
| 14> C       -0.034165    1.837211   -0.109707
| 15> O       -0.163636    2.972926   -0.231026
| 16> C       -0.023402   -1.836685   -0.130415
| 17> O       -0.146189   -2.971707   -0.264701
| 18> C       -1.328355    0.004078   -1.485929
| 19> O       -2.518815    0.004844   -1.307728
| 20> H       -0.932058    0.005632   -2.529143
| 21> *
| 22>
| 23> %maxcore 5000
| 24>
| 25> %pal
| 26> nprocs = 24
| 27> end
| 28>
| 29>
| 30>                          ****END OF INPUT****

CARTESIAN COORDINATES (ANGSTROEM)
---------------------------------
  Mn     0.144445   -0.000220    0.050119
  O     -2.125838   -0.018069    2.024989
  C     -1.261969   -0.011297    1.274333
  C      1.407998   -0.004194    1.401883
  O      2.195378   -0.006691    2.240943
  C      1.458789    0.011243   -1.252981
  O      2.260044    0.018413   -2.075843
  C     -0.034165    1.837211   -0.109707
  O     -0.163636    2.972926   -0.231026
  C     -0.023402   -1.836685   -0.130415
  O     -0.146189   -2.971707   -0.264701
  C     -1.328355    0.004078   -1.485929
  O     -2.518815    0.004844   -1.307728
  H     -0.932058    0.005632   -2.529143

 Total Charge           Charge          ....    0
 Multiplicity           Mult            ....    1
 Number of Electrons    NEL             ....  110
 Basis Dimension        Dim             ....  546

ORBITAL ENERGIES
----------------

  NO   OCC          E(Eh)            E(eV)
   0   2.0000    -236.003390     -6421.9787
   1   2.0000     -27.603215      -751.1217
   2   2.0000     -23.595548      -642.0675
   3   2.0000     -23.594967      -642.0517
   4   2.0000     -23.591099      -641.9464
   5   2.0000     -19.453168      -529.3476
   6   2.0000     -19.449111      -529.2372
   7   2.0000     -19.445231      -529.1316
   8   2.0000     -19.445204      -529.1309
   9   2.0000     -19.442226      -529.0499
  10   2.0000     -19.344175      -526.3818
  11   2.0000     -10.506807      -285.9048
  12   2.0000     -10.503090      -285.8036
  13   2.0000     -10.502770      -285.7949
  14   2.0000     -10.502744      -285.7942
  15   2.0000     -10.499978      -285.7189
  16   2.0000     -10.439990      -284.0866
  17   2.0000      -3.342487       -90.9537
  18   2.0000      -2.185648       -59.4745
  19   2.0000      -2.184706       -59.4489
  20   2.0000      -2.173527       -59.1447
  21   2.0000      -1.303169       -35.4610
  22   2.0000      -1.299972       -35.3740
  23   2.0000      -1.295336       -35.2479
  24   2.0000      -1.295307       -35.2471
  25   2.0000      -1.292335       -35.1662
  26   2.0000      -1.185833       -32.2682
  27   2.0000      -0.767815       -20.8933
  28   2.0000      -0.718043       -19.5389
  29   2.0000      -0.712166       -19.3790
  30   2.0000      -0.712030       -19.3753
  31   2.0000      -0.707626       -19.2555
  32   2.0000      -0.703545       -19.1444
  33   2.0000      -0.641886       -17.4666
  34   2.0000      -0.622609       -16.9420
  35   2.0000      -0.615664       -16.7531
  36   2.0000      -0.612633       -16.6706
  37   2.0000      -0.611789       -16.6476
  38   2.0000      -0.609185       -16.5768
  39   2.0000      -0.608952       -16.5704
  40   2.0000      -0.593921       -16.1614
  41   2.0000      -0.589286       -16.0353
  42   2.0000      -0.588123       -16.0036
  43   2.0000      -0.585586       -15.9346
  44   2.0000      -0.580957       -15.8086
  45   2.0000      -0.571571       -15.5532
  46   2.0000      -0.566605       -15.4181
  47   2.0000      -0.553010       -15.0482
  48   2.0000      -0.540215       -14.7000
  49   2.0000      -0.507886       -13.8203
  50   2.0000      -0.496981       -13.5236
  51   2.0000      -0.391472       -10.6525
  52   2.0000      -0.382009       -10.3950
  53   2.0000      -0.377179       -10.2636
  54   2.0000      -0.319657        -8.6983
  55   0.0000       0.015995         0.4353
  56   0.0000       0.019089         0.5194
  57   0.0000       0.022136         0.6024
  58   0.0000       0.027100         0.7374
  59   0.0000       0.031301         0.8517

MULLIKEN ATOMIC CHARGES
-----------------------
   0 Mn:    1.000338
   1 O :   -0.309614
   2 C :    0.291632
   3 C :    0.265641
   4 O :   -0.375468
   5 C :    0.228055
   6 O :   -0.343897
   7 C :    0.118431
   8 O :   -0.342303
   9 C :    0.116197
  10 O :   -0.342430
  11 C :   -0.045723
  12 O :   -0.480990
  13 H :    0.220131
Sum of atomic charges:    0.0000000

LOEWDIN ATOMIC CHARGES
----------------------
   0 Mn:   -0.467899
   1 O :    0.203790
   2 C :   -0.049084
   3 C :   -0.058755
   4 O :    0.165275
   5 C :   -0.070466
   6 O :    0.186764
   7 C :   -0.061667
   8 O :    0.182403
   9 C :   -0.061786
  10 O :    0.182323
  11 C :   -0.147934
  12 O :    0.012804
  13 H :   -0.015768

  Mayer bond orders larger than 0.100000
B(  0-Mn,  2-C ) :   0.6834 B(  0-Mn,  3-C ) :   0.8510 B(  0-Mn,  5-C ) :   0.6488
B(  0-Mn,  7-C ) :   0.6910 B(  0-Mn,  9-C ) :   0.6883 B(  0-Mn, 11-C ) :   0.5643
B(  0-Mn, 12-O ) :   0.1245 B(  0-Mn, 13-H ) :  -0.1338 B(  1-O ,  2-C ) :   2.0961
B(  3-C ,  4-O ) :   2.0466 B(  5-C ,  6-O ) :   2.0711 B(  7-C ,  8-O ) :   2.0925
B(  9-C , 10-O ) :   2.0927 B( 11-C , 12-O ) :   1.6689 B( 11-C , 13-H ) :   1.2073

FINAL SINGLE POINT ENERGY     -1831.691588282135

DIPOLE MOMENT
-------------
                                X             Y             Z
Electronic contribution:      2.51036      -0.00752       2.75316
Nuclear contribution   :     -1.52284       0.00619      -2.55446
                        -----------------------------------------
Total Dipole Moment    :      0.98752      -0.00133       0.19870
                        -----------------------------------------
Magnitude (a.u.)       :      1.00732
Magnitude (Debye)      :      2.56040

Rotational constants in cm-1:     0.023969     0.022043     0.021367
Rotational constants in MHz :   718.564967   660.846663   640.564054

                             ****ORCA TERMINATED NORMALLY****
TOTAL RUN TIME: 0 days 0 hours 3 minutes 52 seconds 665 msec
