                         Program Version 4.2.0 -  RELEASE  -
|  1> #
|  2> # MOR22_pcy3 wB97M-V/Def2-TZVPPD
|  3> #
|  4> ! wb97m-v def2-tzvppd def2/jk grid4 nofinalgrid
|  5>
|  6> *xyz 0 1
|  7> P       -0.216171   -0.083077   -1.104749
|  8> C        0.505342    1.551445   -0.512411
|  9> C        0.372168    1.952615    0.967298
| 10> C        0.853698    3.397029    1.180070
| 11> C        2.300662    3.578910    0.704200
| 12> C        2.457928    3.151362   -0.760734
| 13> C        1.965268    1.712769   -0.974950
| 14> C        0.795470   -1.465851   -0.339173
| 15> C        1.194026   -1.376002    1.141683
| 16> C        1.830829   -2.691519    1.617818
| 17> C        3.044522   -3.062049    0.755351
| 18> C        2.669205   -3.127202   -0.731177
| 19> C        2.022807   -1.816580   -1.203888
| 20> C       -1.786787   -0.169467   -0.086099
| 21> C       -2.713096    0.996882   -0.481425
| 22> C       -4.042154    0.954203    0.285800
| 23> C       -4.758728   -0.385405    0.080261
| 24> C       -3.846658   -1.555269    0.467941
| 25> C       -2.516136   -1.508613   -0.298163
| 26> H       -0.086881    2.275758   -1.095374
| 27> H        0.969845    1.279400    1.591405
| 28> H       -0.665694    1.858440    1.303963
| 29> H        0.763179    3.670246    2.238833
| 30> H        0.199154    4.078898    0.617939
| 31> H        2.616561    4.621342    0.833145
| 32> H        2.964320    2.965719    1.331124
| 33> H        1.874427    3.827995   -1.401227
| 34> H        3.505668    3.240568   -1.073514
| 35> H        2.061196    1.427054   -2.029468
| 36> H        2.603163    1.029346   -0.398698
| 37> H        0.103060   -2.317100   -0.439871
| 38> H        1.082328   -3.494681    1.556078
| 39> H        0.325749   -1.129652    1.763601
| 40> H        1.922184   -0.564787    1.270256
| 41> H        2.123181   -2.608981    2.672179
| 42> H        3.467034   -4.019422    1.084011
| 43> H        3.828662   -2.303820    0.895790
| 44> H        3.555664   -3.350052   -1.337889
| 45> H        1.959466   -3.952268   -0.888607
| 46> H        1.724465   -1.892063   -2.255831
| 47> H        2.762591   -1.008464   -1.141586
| 48> H       -1.543753   -0.076214    0.982532
| 49> H       -2.216101    1.957671   -0.306445
| 50> H       -2.910289    0.936504   -1.561343
| 51> H       -3.843829    1.098520    1.357699
| 52> H       -4.683867    1.784681   -0.033466
| 53> H       -5.041866   -0.483893   -0.977569
| 54> H       -5.687452   -0.415984    0.663015
| 55> H       -4.350272   -2.511559    0.279900
| 56> H       -3.640750   -1.510603    1.547174
| 57> H       -1.884435   -2.344750    0.021762
| 58> H       -2.704341   -1.645246   -1.372687
| 59> *
| 60>
| 61> %maxcore 5000
| 62>
| 63> %pal
| 64> nprocs = 24
| 65> end
| 66>
| 67>
| 68>                          ****END OF INPUT****

CARTESIAN COORDINATES (ANGSTROEM)
---------------------------------
  P     -0.216171   -0.083077   -1.104749
  C      0.505342    1.551445   -0.512411
  C      0.372168    1.952615    0.967298
  C      0.853698    3.397029    1.180070
  C      2.300662    3.578910    0.704200
  C      2.457928    3.151362   -0.760734
  C      1.965268    1.712769   -0.974950
  C      0.795470   -1.465851   -0.339173
  C      1.194026   -1.376002    1.141683
  C      1.830829   -2.691519    1.617818
  C      3.044522   -3.062049    0.755351
  C      2.669205   -3.127202   -0.731177
  C      2.022807   -1.816580   -1.203888
  C     -1.786787   -0.169467   -0.086099
  C     -2.713096    0.996882   -0.481425
  C     -4.042154    0.954203    0.285800
  C     -4.758728   -0.385405    0.080261
  C     -3.846658   -1.555269    0.467941
  C     -2.516136   -1.508613   -0.298163
  H     -0.086881    2.275758   -1.095374
  H      0.969845    1.279400    1.591405
  H     -0.665694    1.858440    1.303963
  H      0.763179    3.670246    2.238833
  H      0.199154    4.078898    0.617939
  H      2.616561    4.621342    0.833145
  H      2.964320    2.965719    1.331124
  H      1.874427    3.827995   -1.401227
  H      3.505668    3.240568   -1.073514
  H      2.061196    1.427054   -2.029468
  H      2.603163    1.029346   -0.398698
  H      0.103060   -2.317100   -0.439871
  H      1.082328   -3.494681    1.556078
  H      0.325749   -1.129652    1.763601
  H      1.922184   -0.564787    1.270256
  H      2.123181   -2.608981    2.672179
  H      3.467034   -4.019422    1.084011
  H      3.828662   -2.303820    0.895790
  H      3.555664   -3.350052   -1.337889
  H      1.959466   -3.952268   -0.888607
  H      1.724465   -1.892063   -2.255831
  H      2.762591   -1.008464   -1.141586
  H     -1.543753   -0.076214    0.982532
  H     -2.216101    1.957671   -0.306445
  H     -2.910289    0.936504   -1.561343
  H     -3.843829    1.098520    1.357699
  H     -4.683867    1.784681   -0.033466
  H     -5.041866   -0.483893   -0.977569
  H     -5.687452   -0.415984    0.663015
  H     -4.350272   -2.511559    0.279900
  H     -3.640750   -1.510603    1.547174
  H     -1.884435   -2.344750    0.021762
  H     -2.704341   -1.645246   -1.372687

 Total Charge           Charge          ....    0
 Multiplicity           Mult            ....    1
 Number of Electrons    NEL             ....  156
 Basis Dimension        Dim             .... 1275

ORBITAL ENERGIES
----------------

  NO   OCC          E(Eh)            E(eV)
   0   2.0000     -77.346426     -2104.7033
   1   2.0000     -10.345484      -281.5149
   2   2.0000     -10.344364      -281.4845
   3   2.0000     -10.344079      -281.4767
   4   2.0000     -10.339196      -281.3438
   5   2.0000     -10.339112      -281.3415
   6   2.0000     -10.338537      -281.3259
   7   2.0000     -10.338405      -281.3223
   8   2.0000     -10.337569      -281.2996
   9   2.0000     -10.337363      -281.2939
  10   2.0000     -10.337085      -281.2864
  11   2.0000     -10.337027      -281.2848
  12   2.0000     -10.337016      -281.2845
  13   2.0000     -10.336915      -281.2818
  14   2.0000     -10.336828      -281.2794
  15   2.0000     -10.336570      -281.2724
  16   2.0000     -10.335931      -281.2550
  17   2.0000     -10.335771      -281.2506
  18   2.0000     -10.335498      -281.2432
  19   2.0000      -6.695031      -182.1811
  20   2.0000      -4.807630      -130.8223
  21   2.0000      -4.807476      -130.8181
  22   2.0000      -4.803347      -130.7057
  23   2.0000      -0.963322       -26.2133
  24   2.0000      -0.953251       -25.9393
  25   2.0000      -0.952766       -25.9261
  26   2.0000      -0.883628       -24.0447
  27   2.0000      -0.864499       -23.5242
  28   2.0000      -0.862780       -23.4774
  29   2.0000      -0.860095       -23.4044
  30   2.0000      -0.855555       -23.2808
  31   2.0000      -0.854347       -23.2480
  32   2.0000      -0.758236       -20.6327
  33   2.0000      -0.731344       -19.9009
  34   2.0000      -0.728298       -19.8180
  35   2.0000      -0.720116       -19.5953
  36   2.0000      -0.713365       -19.4117
  37   2.0000      -0.712792       -19.3961
  38   2.0000      -0.678919       -18.4743
  39   2.0000      -0.668460       -18.1897
  40   2.0000      -0.663222       -18.0472
  41   2.0000      -0.639406       -17.3991
  42   2.0000      -0.588162       -16.0047
  43   2.0000      -0.584052       -15.8929
  44   2.0000      -0.576642       -15.6912
  45   2.0000      -0.553422       -15.0594
  46   2.0000      -0.546770       -14.8784
  47   2.0000      -0.545909       -14.8549
  48   2.0000      -0.545340       -14.8395
  49   2.0000      -0.542997       -14.7757
  50   2.0000      -0.539787       -14.6883
  51   2.0000      -0.535643       -14.5756
  52   2.0000      -0.520902       -14.1745
  53   2.0000      -0.514438       -13.9986
  54   2.0000      -0.488626       -13.2962
  55   2.0000      -0.483972       -13.1695
  56   2.0000      -0.480143       -13.0653
  57   2.0000      -0.478218       -13.0130
  58   2.0000      -0.477265       -12.9870
  59   2.0000      -0.473578       -12.8867
  60   2.0000      -0.458456       -12.4752
  61   2.0000      -0.453702       -12.3458
  62   2.0000      -0.449354       -12.2275
  63   2.0000      -0.442954       -12.0534
  64   2.0000      -0.441643       -12.0177
  65   2.0000      -0.439279       -11.9534
  66   2.0000      -0.432779       -11.7765
  67   2.0000      -0.431722       -11.7478
  68   2.0000      -0.424013       -11.5380
  69   2.0000      -0.418193       -11.3796
  70   2.0000      -0.408793       -11.1238
  71   2.0000      -0.404910       -11.0182
  72   2.0000      -0.397944       -10.8286
  73   2.0000      -0.396042       -10.7768
  74   2.0000      -0.393194       -10.6994
  75   2.0000      -0.358385        -9.7521
  76   2.0000      -0.358083        -9.7439
  77   2.0000      -0.300356        -8.1731
  78   0.0000       0.032971         0.8972
  79   0.0000       0.039132         1.0648
  80   0.0000       0.040714         1.1079
  81   0.0000       0.043982         1.1968
  82   0.0000       0.053204         1.4478

MULLIKEN ATOMIC CHARGES
-----------------------
   0 P :   -0.829309
   1 C :    0.392109
   2 C :   -0.564601
   3 C :   -1.186262
   4 C :   -0.720900
   5 C :   -1.021452
   6 C :   -1.022042
   7 C :    0.589014
   8 C :   -0.807956
   9 C :   -1.021584
  10 C :   -0.745281
  11 C :   -0.994759
  12 C :   -0.956933
  13 C :    0.490504
  14 C :   -1.051936
  15 C :   -0.913596
  16 C :   -0.822948
  17 C :   -0.876507
  18 C :   -0.951566
  19 H :    0.740360
  20 H :    0.257589
  21 H :    0.350817
  22 H :    0.394199
  23 H :    0.402767
  24 H :    0.386824
  25 H :    0.322392
  26 H :    0.379367
  27 H :    0.377114
  28 H :    0.507976
  29 H :    0.278667
  30 H :    0.621413
  31 H :    0.367928
  32 H :    0.323347
  33 H :    0.317451
  34 H :    0.384600
  35 H :    0.385043
  36 H :    0.320630
  37 H :    0.369104
  38 H :    0.383083
  39 H :    0.562050
  40 H :    0.246223
  41 H :    0.477688
  42 H :    0.388071
  43 H :    0.489846
  44 H :    0.340246
  45 H :    0.400112
  46 H :    0.336406
  47 H :    0.379549
  48 H :    0.393606
  49 H :    0.335078
  50 H :    0.361237
  51 H :    0.435221
Sum of atomic charges:   -0.0000000

LOEWDIN ATOMIC CHARGES
----------------------
   0 P :    1.148896
   1 C :   -0.334113
   2 C :   -0.033277
   3 C :   -0.014716
   4 C :   -0.023188
   5 C :   -0.018766
   6 C :   -0.056554
   7 C :   -0.335361
   8 C :   -0.035497
   9 C :   -0.016065
  10 C :   -0.023877
  11 C :   -0.020864
  12 C :   -0.055183
  13 C :   -0.356189
  14 C :   -0.056423
  15 C :   -0.018648
  16 C :   -0.026381
  17 C :   -0.020133
  18 C :   -0.050817
  19 H :   -0.009740
  20 H :    0.003098
  21 H :   -0.002889
  22 H :    0.014133
  23 H :    0.022063
  24 H :    0.012230
  25 H :    0.021270
  26 H :    0.021322
  27 H :    0.013631
  28 H :    0.012841
  29 H :    0.002661
  30 H :   -0.020513
  31 H :    0.021430
  32 H :    0.009185
  33 H :    0.004593
  34 H :    0.013778
  35 H :    0.012008
  36 H :    0.021112
  37 H :    0.013050
  38 H :    0.020751
  39 H :    0.007011
  40 H :    0.001711
  41 H :   -0.009274
  42 H :   -0.004258
  43 H :    0.021971
  44 H :    0.021925
  45 H :    0.013725
  46 H :    0.021152
  47 H :    0.012266
  48 H :    0.013253
  49 H :    0.021816
  50 H :   -0.002426
  51 H :    0.022270

  Mayer bond orders larger than 0.100000
B(  0-P ,  1-C ) :   0.7682 B(  0-P ,  6-C ) :   0.2163 B(  0-P ,  7-C ) :   0.5901
B(  0-P ,  8-C ) :   0.1339 B(  0-P , 13-C ) :   0.5916 B(  0-P , 14-C ) :   0.2837
B(  0-P , 19-H ) :  -0.1008 B(  0-P , 28-H ) :  -0.1012 B(  0-P , 39-H ) :  -0.1766
B(  1-C ,  2-C ) :   0.3359 B(  1-C ,  5-C ) :   0.1647 B(  1-C ,  6-C ) :   0.3940
B(  1-C ,  7-C ) :   0.1825 B(  1-C , 14-C ) :   0.1091 B(  1-C , 19-H ) :   0.5016
B(  1-C , 20-H ) :  -0.1707 B(  1-C , 29-H ) :  -0.2544 B(  2-C ,  3-C ) :   0.5426
B(  2-C ,  4-C ) :   0.1054 B(  2-C , 13-C ) :   0.1285 B(  2-C , 20-H ) :   1.1651
B(  2-C , 21-H ) :   0.8776 B(  2-C , 23-H ) :  -0.1223 B(  3-C ,  4-C ) :   0.5468
B(  3-C ,  5-C ) :   0.1435 B(  3-C , 21-H ) :   0.1454 B(  3-C , 22-H ) :   0.9304
B(  3-C , 23-H ) :   0.9760 B(  4-C ,  5-C ) :   0.5780 B(  4-C , 24-H ) :   0.9488
B(  4-C , 25-H ) :   1.0052 B(  5-C ,  6-C ) :   0.5348 B(  5-C , 26-H ) :   0.9875
B(  5-C , 27-H ) :   0.9546 B(  6-C , 26-H ) :  -0.1072 B(  6-C , 28-H ) :   0.7043
B(  6-C , 29-H ) :   1.2438 B(  7-C ,  8-C ) :   0.4016 B(  7-C , 11-C ) :   0.1444
B(  7-C , 12-C ) :   0.5246 B(  7-C , 13-C ) :   0.1043 B(  7-C , 18-C ) :   0.1589
B(  7-C , 30-H ) :   0.5778 B(  7-C , 33-H ) :  -0.2010 B(  7-C , 40-H ) :  -0.2339
B(  8-C ,  9-C ) :   0.4727 B(  8-C , 10-C ) :   0.1226 B(  8-C , 12-C ) :  -0.1556
B(  8-C , 13-C ) :   0.1134 B(  8-C , 31-H ) :  -0.1186 B(  8-C , 32-H ) :   0.9131
B(  8-C , 33-H ) :   1.1483 B(  9-C , 10-C ) :   0.5490 B(  9-C , 11-C ) :   0.1213
B(  9-C , 31-H ) :   1.0105 B(  9-C , 34-H ) :   0.9511 B( 10-C , 11-C ) :   0.5684
B( 10-C , 35-H ) :   0.9521 B( 10-C , 36-H ) :   1.0118 B( 11-C , 12-C ) :   0.5323
B( 11-C , 37-H ) :   0.9775 B( 11-C , 38-H ) :   0.9661 B( 12-C , 39-H ) :   0.6569
B( 12-C , 40-H ) :   1.2821 B( 13-C , 14-C ) :   0.2708 B( 13-C , 17-C ) :   0.1186
B( 13-C , 18-C ) :   0.2523 B( 13-C , 41-H ) :   0.8317 B( 13-C , 42-H ) :  -0.1050
B( 13-C , 43-H ) :  -0.1078 B( 13-C , 51-H ) :  -0.1155 B( 14-C , 15-C ) :   0.5295
B( 14-C , 16-C ) :   0.1219 B( 14-C , 18-C ) :  -0.1290 B( 14-C , 41-H ) :  -0.1119
B( 14-C , 42-H ) :   0.9186 B( 14-C , 43-H ) :   0.9160 B( 14-C , 44-H ) :  -0.1050
B( 15-C , 16-C ) :   0.6001 B( 15-C , 42-H ) :   0.1226 B( 15-C , 44-H ) :   1.0418
B( 15-C , 45-H ) :   0.9188 B( 16-C , 17-C ) :   0.6021 B( 16-C , 18-C ) :   0.1401
B( 16-C , 46-H ) :   0.9951 B( 16-C , 47-H ) :   0.9572 B( 17-C , 18-C ) :   0.3745
B( 17-C , 48-H ) :   0.9384 B( 17-C , 49-H ) :   1.0339 B( 17-C , 50-H ) :   0.1352
B( 18-C , 49-H ) :  -0.1017 B( 18-C , 50-H ) :   0.9211 B( 18-C , 51-H ) :   0.9730
B( 32-H , 33-H ) :   0.1055 B( 42-H , 43-H ) :   0.1044 B( 50-H , 51-H ) :   0.1130

FINAL SINGLE POINT ENERGY     -1047.059027342275

DIPOLE MOMENT
-------------
                                X             Y             Z
Electronic contribution:     -1.37050      -0.48334      -6.54600
Nuclear contribution   :      1.41899       0.52417       7.05083
                        -----------------------------------------
Total Dipole Moment    :      0.04850       0.04083       0.50483
                        -----------------------------------------
Magnitude (a.u.)       :      0.50880
Magnitude (Debye)      :      1.29326

Rotational constants in cm-1:     0.011612     0.009073     0.005947
Rotational constants in MHz :   348.132374   272.016111   178.294122

                             ****ORCA TERMINATED NORMALLY****
TOTAL RUN TIME: 0 days 0 hours 45 minutes 54 seconds 604 msec
