                         Program Version 4.2.0 -  RELEASE  -
|  1> #
|  2> # MOR21_mecn wB97M-V/Def2-TZVPPD
|  3> #
|  4> ! wb97m-v def2-tzvppd def2/jk grid4 nofinalgrid
|  5>
|  6> *xyz 0 1
|  7> N        1.434594    0.083513   -0.053227
|  8> C        0.278345    0.016206   -0.010325
|  9> C       -1.176577   -0.068494    0.043652
| 10> H       -1.556498   -0.572512   -0.849824
| 11> H       -1.609231    0.934929    0.094890
| 12> H       -1.487035   -0.633283    0.927565
| 13> *
| 14>
| 15> %maxcore 5000
| 16>
| 17> %pal
| 18> nprocs = 24
| 19> end
| 20>
| 21>
| 22>                          ****END OF INPUT****

CARTESIAN COORDINATES (ANGSTROEM)
---------------------------------
  N      1.434594    0.083513   -0.053227
  C      0.278345    0.016206   -0.010325
  C     -1.176577   -0.068494    0.043652
  H     -1.556498   -0.572512   -0.849824
  H     -1.609231    0.934929    0.094890
  H     -1.487035   -0.633283    0.927565

 Total Charge           Charge          ....    0
 Multiplicity           Mult            ....    1
 Number of Electrons    NEL             ....   22
 Basis Dimension        Dim             ....  162

ORBITAL ENERGIES
----------------

  NO   OCC          E(Eh)            E(eV)
   0   2.0000     -14.509176      -394.8147
   1   2.0000     -10.401475      -283.0385
   2   2.0000     -10.391551      -282.7685
   3   2.0000      -1.035642       -28.1812
   4   2.0000      -0.903449       -24.5841
   5   2.0000      -0.629012       -17.1163
   6   2.0000      -0.576179       -15.6786
   7   2.0000      -0.576176       -15.6785
   8   2.0000      -0.478549       -13.0220
   9   2.0000      -0.435756       -11.8575
  10   2.0000      -0.435755       -11.8575
  11   0.0000       0.026218         0.7134
  12   0.0000       0.069377         1.8878
  13   0.0000       0.093147         2.5347
  14   0.0000       0.093151         2.5348
  15   0.0000       0.125819         3.4237

MULLIKEN ATOMIC CHARGES
-----------------------
   0 N :   -0.344580
   1 C :    0.254542
   2 C :   -0.511745
   3 H :    0.200646
   4 H :    0.200460
   5 H :    0.200676
Sum of atomic charges:    0.0000000

LOEWDIN ATOMIC CHARGES
----------------------
   0 N :    0.124350
   1 C :   -0.241481
   2 C :    0.131424
   3 H :   -0.004764
   4 H :   -0.004766
   5 H :   -0.004763

  Mayer bond orders larger than 0.100000
B(  0-N ,  1-C ) :   2.2707 B(  1-C ,  2-C ) :   0.7825 B(  2-C ,  3-H ) :   0.9879
B(  2-C ,  4-H ) :   0.9881 B(  2-C ,  5-H ) :   0.9878

FINAL SINGLE POINT ENERGY      -132.752646428121

DIPOLE MOMENT
-------------
                                X             Y             Z
Electronic contribution:      3.08759       0.17975      -0.11454
Nuclear contribution   :     -4.67428      -0.27212       0.17343
                        -----------------------------------------
Total Dipole Moment    :     -1.58669      -0.09237       0.05889
                        -----------------------------------------
Magnitude (a.u.)       :      1.59046
Magnitude (Debye)      :      4.04264

Rotational constants in cm-1:     5.279638     0.306561     0.306561
Rotational constants in MHz : 158279.554854  9190.460473  9190.452676

                             ****ORCA TERMINATED NORMALLY****
TOTAL RUN TIME: 0 days 0 hours 0 minutes 5 seconds 85 msec
