                         Program Version 4.2.0 -  RELEASE  -
|  1> #
|  2> # MOR25_pr01 wB97M-V/Def2-TZVPPD
|  3> #
|  4> ! wb97m-v def2-tzvppd def2/jk grid4 nofinalgrid
|  5>
|  6> *xyz 0 1
|  7> Cr      -0.000002    0.000001   -0.000002
|  8> O       -2.697134   -0.646688    1.294578
|  9> C       -1.683963   -0.403751    0.808266
| 10> C        0.796729   -1.469777    0.925736
| 11> O        1.276107   -2.354083    1.482723
| 12> C        1.683955    0.403738   -0.808274
| 13> O        2.697131    0.646654   -1.294589
| 14> C        0.426065    1.152703    1.463476
| 15> O        0.682414    1.846242    2.344001
| 16> C       -0.426072   -1.152714   -1.463481
| 17> O       -0.682416   -1.846267   -2.343994
| 18> C       -0.796727    1.469805   -0.925736
| 19> O       -1.276085    2.354134   -1.482702
| 20> *
| 21>
| 22> %maxcore 5000
| 23>
| 24> %pal
| 25> nprocs = 24
| 26> end
| 27>
| 28>
| 29>                          ****END OF INPUT****

CARTESIAN COORDINATES (ANGSTROEM)
---------------------------------
  Cr    -0.000002    0.000001   -0.000002
  O     -2.697134   -0.646688    1.294578
  C     -1.683963   -0.403751    0.808266
  C      0.796729   -1.469777    0.925736
  O      1.276107   -2.354083    1.482723
  C      1.683955    0.403738   -0.808274
  O      2.697131    0.646654   -1.294589
  C      0.426065    1.152703    1.463476
  O      0.682414    1.846242    2.344001
  C     -0.426072   -1.152714   -1.463481
  O     -0.682416   -1.846267   -2.343994
  C     -0.796727    1.469805   -0.925736
  O     -1.276085    2.354134   -1.482702

 Total Charge           Charge          ....    0
 Multiplicity           Mult            ....    1
 Number of Electrons    NEL             ....  108
 Basis Dimension        Dim             ....  529

ORBITAL ENERGIES
----------------

  NO   OCC          E(Eh)            E(eV)
   0   2.0000    -216.227107     -5883.8387
   1   2.0000     -24.978697      -679.7049
   2   2.0000     -21.186993      -576.5274
   3   2.0000     -21.186992      -576.5274
   4   2.0000     -21.186992      -576.5274
   5   2.0000     -19.435642      -528.8707
   6   2.0000     -19.435641      -528.8707
   7   2.0000     -19.435640      -528.8706
   8   2.0000     -19.435639      -528.8706
   9   2.0000     -19.435638      -528.8706
  10   2.0000     -19.435636      -528.8705
  11   2.0000     -10.490311      -285.4559
  12   2.0000     -10.490306      -285.4557
  13   2.0000     -10.490305      -285.4557
  14   2.0000     -10.490304      -285.4557
  15   2.0000     -10.490302      -285.4556
  16   2.0000     -10.490301      -285.4556
  17   2.0000      -3.039268       -82.7027
  18   2.0000      -1.967341       -53.5341
  19   2.0000      -1.967340       -53.5340
  20   2.0000      -1.967339       -53.5340
  21   2.0000      -1.287048       -35.0224
  22   2.0000      -1.285929       -34.9919
  23   2.0000      -1.285928       -34.9919
  24   2.0000      -1.285927       -34.9919
  25   2.0000      -1.285483       -34.9798
  26   2.0000      -1.285482       -34.9798
  27   2.0000      -0.751141       -20.4396
  28   2.0000      -0.702154       -19.1066
  29   2.0000      -0.702154       -19.1066
  30   2.0000      -0.702153       -19.1066
  31   2.0000      -0.697235       -18.9727
  32   2.0000      -0.697234       -18.9727
  33   2.0000      -0.631075       -17.1724
  34   2.0000      -0.606400       -16.5010
  35   2.0000      -0.606400       -16.5010
  36   2.0000      -0.606399       -16.5010
  37   2.0000      -0.601294       -16.3620
  38   2.0000      -0.601294       -16.3620
  39   2.0000      -0.601293       -16.3620
  40   2.0000      -0.583243       -15.8708
  41   2.0000      -0.583242       -15.8708
  42   2.0000      -0.583242       -15.8708
  43   2.0000      -0.575666       -15.6647
  44   2.0000      -0.575665       -15.6646
  45   2.0000      -0.575664       -15.6646
  46   2.0000      -0.561553       -15.2806
  47   2.0000      -0.561546       -15.2804
  48   2.0000      -0.529254       -14.4017
  49   2.0000      -0.529252       -14.4017
  50   2.0000      -0.529248       -14.4016
  51   2.0000      -0.345216        -9.3938
  52   2.0000      -0.345207        -9.3936
  53   2.0000      -0.345204        -9.3935
  54   0.0000       0.016103         0.4382
  55   0.0000       0.020776         0.5653
  56   0.0000       0.020778         0.5654
  57   0.0000       0.020782         0.5655
  58   0.0000       0.029171         0.7938

MULLIKEN ATOMIC CHARGES
-----------------------
   0 Cr:   -1.466321
   1 O :   -0.345795
   2 C :    0.590001
   3 C :    0.590832
   4 O :   -0.345844
   5 C :    0.590060
   6 O :   -0.345766
   7 C :    0.589702
   8 O :   -0.345712
   9 C :    0.589807
  10 O :   -0.345733
  11 C :    0.590527
  12 O :   -0.345756
Sum of atomic charges:    0.0000000

LOEWDIN ATOMIC CHARGES
----------------------
   0 Cr:   -0.546646
   1 O :    0.164388
   2 C :   -0.073278
   3 C :   -0.073272
   4 O :    0.164383
   5 C :   -0.073280
   6 O :    0.164386
   7 C :   -0.073284
   8 O :    0.164380
   9 C :   -0.073279
  10 O :    0.164382
  11 C :   -0.073263
  12 O :    0.164384

  Mayer bond orders larger than 0.100000
B(  0-Cr,  1-O ) :   0.1460 B(  0-Cr,  2-C ) :   0.9804 B(  0-Cr,  3-C ) :   0.9787
B(  0-Cr,  4-O ) :   0.1459 B(  0-Cr,  5-C ) :   0.9800 B(  0-Cr,  6-O ) :   0.1459
B(  0-Cr,  7-C ) :   0.9793 B(  0-Cr,  8-O ) :   0.1458 B(  0-Cr,  9-C ) :   0.9795
B(  0-Cr, 10-O ) :   0.1457 B(  0-Cr, 11-C ) :   0.9791 B(  0-Cr, 12-O ) :   0.1457
B(  1-O ,  2-C ) :   1.9701 B(  3-C ,  4-O ) :   1.9700 B(  5-C ,  6-O ) :   1.9700
B(  7-C ,  8-O ) :   1.9702 B(  9-C , 10-O ) :   1.9704 B( 11-C , 12-O ) :   1.9702

FINAL SINGLE POINT ENERGY     -1724.624659047766

DIPOLE MOMENT
-------------
                                X             Y             Z
Electronic contribution:     -0.00004       0.00001      -0.00004
Nuclear contribution   :      0.00001      -0.00000       0.00001
                        -----------------------------------------
Total Dipole Moment    :     -0.00004       0.00001      -0.00003
                        -----------------------------------------
Magnitude (a.u.)       :      0.00005
Magnitude (Debye)      :      0.00013

Rotational constants in cm-1:     0.021751     0.021751     0.021751
Rotational constants in MHz :   652.090818   652.088663   652.088001

                             ****ORCA TERMINATED NORMALLY****
TOTAL RUN TIME: 0 days 0 hours 2 minutes 49 seconds 294 msec
