                         Program Version 4.2.0 -  RELEASE  -
|  1> #
|  2> # MOR34_pr35 wB97M-V/Def2-TZVPPD
|  3> #
|  4> ! wb97m-v def2-tzvppd def2/jk grid4 nofinalgrid
|  5>
|  6> *xyz 0 1
|  7> Ru       0.569145    0.005836    0.165179
|  8> Se      -1.577691    0.219302   -1.256403
|  9> P        2.150844   -0.339975    1.751510
| 10> P        1.960774    0.268717   -1.689611
| 11> P        0.209152    2.312844    0.427199
| 12> P        0.201777   -2.273734   -0.170115
| 13> C       -3.165297    0.017396   -0.190307
| 14> C       -4.394132    0.053132   -0.874133
| 15> C       -5.595730   -0.078160   -0.183035
| 16> C       -5.602894   -0.248979    1.204636
| 17> C       -4.386994   -0.285335    1.887322
| 18> C       -3.179536   -0.153593    1.200055
| 19> C        2.835775    1.024261    2.797241
| 20> C        3.776990   -1.134294    1.350685
| 21> C        1.582544   -1.410719    3.147602
| 22> C        1.189258    0.640725   -3.324662
| 23> C        3.233820    1.610023   -1.608962
| 24> C        3.088037   -1.102636   -2.218553
| 25> C       -1.285561    2.723129    1.411363
| 26> C        1.411100    3.483245    1.220886
| 27> C       -0.106458    3.317190   -1.091179
| 28> C       -1.203048   -2.960414    0.792609
| 29> C        1.495583   -3.557062    0.180127
| 30> C       -0.249251   -2.863510   -1.860160
| 31> H       -0.380046   -0.139952    1.501494
| 32> H       -4.399385    0.184833   -1.953205
| 33> H       -6.533440   -0.047821   -0.732848
| 34> H       -6.541373   -0.352173    1.741881
| 35> H       -4.372710   -0.417664    2.966984
| 36> H       -2.231572   -0.183831    1.730627
| 37> H        2.021868    1.525326    3.326216
| 38> H        3.360848    1.757391    2.181578
| 39> H        3.533951    0.611895    3.534364
| 40> H        4.357450   -0.458164    0.715432
| 41> H        3.629968   -2.070962    0.811827
| 42> H        4.349762   -1.333108    2.263576
| 43> H        0.778593   -0.879257    3.663997
| 44> H        2.395525   -1.623101    3.851423
| 45> H        1.170731   -2.350778    2.777081
| 46> H        1.942377    0.770617   -4.110078
| 47> H        0.580686    1.544719   -3.247034
| 48> H        0.519142   -0.181425   -3.592607
| 49> H        3.848415    1.640003   -2.515852
| 50> H        3.881269    1.436754   -0.744032
| 51> H        2.749674    2.580347   -1.477575
| 52> H        3.680607   -0.803573   -3.090502
| 53> H        2.506614   -1.989838   -2.479223
| 54> H        3.765021   -1.364235   -1.402566
| 55> H       -1.422862    3.807855    1.484184
| 56> H       -1.180491    2.295670    2.412101
| 57> H       -2.158099    2.270920    0.935224
| 58> H        1.060677    4.511234    1.077988
| 59> H        2.402787    3.383240    0.772277
| 60> H        1.491749    3.290644    2.291344
| 61> H       -0.430215    4.323980   -0.805953
| 62> H       -0.883917    2.832935   -1.685612
| 63> H        0.806667    3.401312   -1.686904
| 64> H       -1.338643   -4.028887    0.591012
| 65> H       -2.108817   -2.414477    0.518490
| 66> H       -1.024200   -2.804556    1.859563
| 67> H        1.083825   -4.556345    0.001539
| 68> H        1.848365   -3.505467    1.212021
| 69> H        2.350340   -3.408454   -0.485526
| 70> H       -0.446095   -3.940916   -1.837012
| 71> H        0.566038   -2.668527   -2.561627
| 72> H       -1.135395   -2.323383   -2.198214
| 73> *
| 74>
| 75> %maxcore 5000
| 76>
| 77> %pal
| 78> nprocs = 24
| 79> end
| 80>
| 81>
| 82>                          ****END OF INPUT****

CARTESIAN COORDINATES (ANGSTROEM)
---------------------------------
  Ru     0.569145    0.005836    0.165179
  Se    -1.577691    0.219302   -1.256403
  P      2.150844   -0.339975    1.751510
  P      1.960774    0.268717   -1.689611
  P      0.209152    2.312844    0.427199
  P      0.201777   -2.273734   -0.170115
  C     -3.165297    0.017396   -0.190307
  C     -4.394132    0.053132   -0.874133
  C     -5.595730   -0.078160   -0.183035
  C     -5.602894   -0.248979    1.204636
  C     -4.386994   -0.285335    1.887322
  C     -3.179536   -0.153593    1.200055
  C      2.835775    1.024261    2.797241
  C      3.776990   -1.134294    1.350685
  C      1.582544   -1.410719    3.147602
  C      1.189258    0.640725   -3.324662
  C      3.233820    1.610023   -1.608962
  C      3.088037   -1.102636   -2.218553
  C     -1.285561    2.723129    1.411363
  C      1.411100    3.483245    1.220886
  C     -0.106458    3.317190   -1.091179
  C     -1.203048   -2.960414    0.792609
  C      1.495583   -3.557062    0.180127
  C     -0.249251   -2.863510   -1.860160
  H     -0.380046   -0.139952    1.501494
  H     -4.399385    0.184833   -1.953205
  H     -6.533440   -0.047821   -0.732848
  H     -6.541373   -0.352173    1.741881
  H     -4.372710   -0.417664    2.966984
  H     -2.231572   -0.183831    1.730627
  H      2.021868    1.525326    3.326216
  H      3.360848    1.757391    2.181578
  H      3.533951    0.611895    3.534364
  H      4.357450   -0.458164    0.715432
  H      3.629968   -2.070962    0.811827
  H      4.349762   -1.333108    2.263576
  H      0.778593   -0.879257    3.663997
  H      2.395525   -1.623101    3.851423
  H      1.170731   -2.350778    2.777081
  H      1.942377    0.770617   -4.110078
  H      0.580686    1.544719   -3.247034
  H      0.519142   -0.181425   -3.592607
  H      3.848415    1.640003   -2.515852
  H      3.881269    1.436754   -0.744032
  H      2.749674    2.580347   -1.477575
  H      3.680607   -0.803573   -3.090502
  H      2.506614   -1.989838   -2.479223
  H      3.765021   -1.364235   -1.402566
  H     -1.422862    3.807855    1.484184
  H     -1.180491    2.295670    2.412101
  H     -2.158099    2.270920    0.935224
  H      1.060677    4.511234    1.077988
  H      2.402787    3.383240    0.772277
  H      1.491749    3.290644    2.291344
  H     -0.430215    4.323980   -0.805953
  H     -0.883917    2.832935   -1.685612
  H      0.806667    3.401312   -1.686904
  H     -1.338643   -4.028887    0.591012
  H     -2.108817   -2.414477    0.518490
  H     -1.024200   -2.804556    1.859563
  H      1.083825   -4.556345    0.001539
  H      1.848365   -3.505467    1.212021
  H      2.350340   -3.408454   -0.485526
  H     -0.446095   -3.940916   -1.837012
  H      0.566038   -2.668527   -2.561627
  H     -1.135395   -2.323383   -2.198214

 Total Charge           Charge          ....    0
 Multiplicity           Mult            ....    1
 Number of Electrons    NEL             ....  260
 Basis Dimension        Dim             .... 1685

ORBITAL ENERGIES
----------------

  NO   OCC          E(Eh)            E(eV)
   0   2.0000    -454.455057    -12366.3508
   1   2.0000     -77.395524     -2106.0393
   2   2.0000     -77.388879     -2105.8585
   3   2.0000     -77.387716     -2105.8268
   4   2.0000     -77.385336     -2105.7621
   5   2.0000     -58.306623     -1586.6039
   6   2.0000     -52.235037     -1421.3876
   7   2.0000     -52.233344     -1421.3415
   8   2.0000     -52.232298     -1421.3131
   9   2.0000     -10.348980      -281.6101
  10   2.0000     -10.345188      -281.5069
  11   2.0000     -10.345110      -281.5047
  12   2.0000     -10.343612      -281.4640
  13   2.0000     -10.343155      -281.4516
  14   2.0000     -10.341629      -281.4100
  15   2.0000     -10.339818      -281.3607
  16   2.0000     -10.338004      -281.3114
  17   2.0000     -10.335117      -281.2328
  18   2.0000     -10.329248      -281.0731
  19   2.0000     -10.328806      -281.0611
  20   2.0000     -10.328566      -281.0546
  21   2.0000     -10.328360      -281.0490
  22   2.0000     -10.327629      -281.0291
  23   2.0000     -10.325224      -280.9636
  24   2.0000     -10.324514      -280.9443
  25   2.0000     -10.323639      -280.9205
  26   2.0000     -10.318652      -280.7848
  27   2.0000      -7.937676      -215.9952
  28   2.0000      -6.739241      -183.3841
  29   2.0000      -6.733563      -183.2296
  30   2.0000      -6.732262      -183.1942
  31   2.0000      -6.729925      -183.1306
  32   2.0000      -5.842126      -158.9723
  33   2.0000      -5.835822      -158.8008
  34   2.0000      -5.832165      -158.7013
  35   2.0000      -4.852223      -132.0357
  36   2.0000      -4.852048      -132.0309
  37   2.0000      -4.848534      -131.9353
  38   2.0000      -4.846510      -131.8802
  39   2.0000      -4.846284      -131.8741
  40   2.0000      -4.845336      -131.8483
  41   2.0000      -4.844756      -131.8325
  42   2.0000      -4.842977      -131.7841
  43   2.0000      -4.842699      -131.7765
  44   2.0000      -4.842430      -131.7692
  45   2.0000      -4.841605      -131.7468
  46   2.0000      -4.839253      -131.6828
  47   2.0000      -3.108158       -84.5773
  48   2.0000      -2.162976       -58.8576
  49   2.0000      -2.161447       -58.8160
  50   2.0000      -2.158443       -58.7342
  51   2.0000      -2.153426       -58.5977
  52   2.0000      -2.153177       -58.5909
  53   2.0000      -1.947630       -52.9977
  54   2.0000      -1.945915       -52.9510
  55   2.0000      -1.942069       -52.8464
  56   2.0000      -0.957414       -26.0526
  57   2.0000      -0.902227       -24.5508
  58   2.0000      -0.893998       -24.3269
  59   2.0000      -0.888778       -24.1849
  60   2.0000      -0.886338       -24.1185
  61   2.0000      -0.853832       -23.2339
  62   2.0000      -0.844341       -22.9757
  63   2.0000      -0.822111       -22.3708
  64   2.0000      -0.817927       -22.2569
  65   2.0000      -0.817885       -22.2558
  66   2.0000      -0.813064       -22.1246
  67   2.0000      -0.809699       -22.0330
  68   2.0000      -0.804467       -21.8906
  69   2.0000      -0.802962       -21.8497
  70   2.0000      -0.802009       -21.8238
  71   2.0000      -0.745110       -20.2755
  72   2.0000      -0.695730       -18.9318
  73   2.0000      -0.674650       -18.3582
  74   2.0000      -0.665026       -18.0963
  75   2.0000      -0.656464       -17.8633
  76   2.0000      -0.649762       -17.6809
  77   2.0000      -0.646784       -17.5999
  78   2.0000      -0.595995       -16.2179
  79   2.0000      -0.577591       -15.7170
  80   2.0000      -0.564407       -15.3583
  81   2.0000      -0.561547       -15.2805
  82   2.0000      -0.555616       -15.1191
  83   2.0000      -0.552830       -15.0433
  84   2.0000      -0.545755       -14.8507
  85   2.0000      -0.541456       -14.7338
  86   2.0000      -0.538636       -14.6570
  87   2.0000      -0.534320       -14.5396
  88   2.0000      -0.533381       -14.5140
  89   2.0000      -0.530777       -14.4432
  90   2.0000      -0.527912       -14.3652
  91   2.0000      -0.526436       -14.3251
  92   2.0000      -0.520590       -14.1660
  93   2.0000      -0.511401       -13.9159
  94   2.0000      -0.508791       -13.8449
  95   2.0000      -0.507440       -13.8081
  96   2.0000      -0.504114       -13.7176
  97   2.0000      -0.501683       -13.6515
  98   2.0000      -0.497172       -13.5287
  99   2.0000      -0.495297       -13.4777
 100   2.0000      -0.493509       -13.4291
 101   2.0000      -0.493044       -13.4164
 102   2.0000      -0.490289       -13.3415
 103   2.0000      -0.488301       -13.2873
 104   2.0000      -0.482392       -13.1265
 105   2.0000      -0.480858       -13.0848
 106   2.0000      -0.466876       -12.7043
 107   2.0000      -0.458468       -12.4756
 108   2.0000      -0.442927       -12.0527
 109   2.0000      -0.440839       -11.9958
 110   2.0000      -0.439148       -11.9498
 111   2.0000      -0.434081       -11.8120
 112   2.0000      -0.428575       -11.6621
 113   2.0000      -0.423578       -11.5261
 114   2.0000      -0.420191       -11.4340
 115   2.0000      -0.419655       -11.4194
 116   2.0000      -0.419151       -11.4057
 117   2.0000      -0.414871       -11.2892
 118   2.0000      -0.407063       -11.0768
 119   2.0000      -0.401136       -10.9155
 120   2.0000      -0.375841       -10.2272
 121   2.0000      -0.360087        -9.7985
 122   2.0000      -0.336324        -9.1518
 123   2.0000      -0.322018        -8.7625
 124   2.0000      -0.321490        -8.7482
 125   2.0000      -0.317778        -8.6472
 126   2.0000      -0.311742        -8.4829
 127   2.0000      -0.302256        -8.2248
 128   2.0000      -0.280604        -7.6356
 129   2.0000      -0.240760        -6.5514
 130   0.0000       0.020567         0.5597
 131   0.0000       0.032698         0.8897
 132   0.0000       0.034728         0.9450
 133   0.0000       0.037822         1.0292
 134   0.0000       0.047191         1.2841

MULLIKEN ATOMIC CHARGES
-----------------------
   0 Ru:   -1.661763
   1 Se:   -0.113146
   2 P :    1.863187
   3 P :    1.477259
   4 P :    1.609280
   5 P :    1.398163
   6 C :    0.569241
   7 C :   -0.887211
   8 C :   -0.236528
   9 C :   -0.261589
  10 C :   -0.660461
  11 C :    0.572172
  12 C :   -1.649191
  13 C :   -1.437449
  14 C :   -1.525799
  15 C :   -1.559109
  16 C :   -1.290767
  17 C :   -1.277367
  18 C :   -1.263351
  19 C :   -1.401736
  20 C :   -1.354955
  21 C :   -1.310448
  22 C :   -1.358911
  23 C :   -1.181868
  24 H :   -0.071524
  25 H :    0.132755
  26 H :    0.145984
  27 H :    0.133125
  28 H :    0.200201
  29 H :   -0.281406
  30 H :    0.308721
  31 H :    0.320498
  32 H :    0.508113
  33 H :    0.350953
  34 H :    0.258233
  35 H :    0.506914
  36 H :    0.358087
  37 H :    0.455461
  38 H :    0.255468
  39 H :    0.478397
  40 H :    0.309178
  41 H :    0.327575
  42 H :    0.452587
  43 H :    0.276457
  44 H :    0.293935
  45 H :    0.477145
  46 H :    0.285168
  47 H :    0.265583
  48 H :    0.481382
  49 H :    0.262969
  50 H :    0.187461
  51 H :    0.513781
  52 H :    0.234954
  53 H :    0.309294
  54 H :    0.509321
  55 H :    0.208200
  56 H :    0.336494
  57 H :    0.510952
  58 H :    0.233204
  59 H :    0.248893
  60 H :    0.500316
  61 H :    0.332787
  62 H :    0.265491
  63 H :    0.486929
  64 H :    0.304952
  65 H :    0.267359
Sum of atomic charges:    0.0000000

LOEWDIN ATOMIC CHARGES
----------------------
   0 Ru:   -0.118224
   1 Se:    0.674615
   2 P :    0.768750
   3 P :    0.778456
   4 P :    0.776738
   5 P :    0.771863
   6 C :   -0.585602
   7 C :   -0.066048
   8 C :   -0.005267
   9 C :   -0.009123
  10 C :    0.003147
  11 C :   -0.095038
  12 C :   -0.031013
  13 C :   -0.022559
  14 C :   -0.031642
  15 C :   -0.036255
  16 C :   -0.022497
  17 C :   -0.018812
  18 C :   -0.022343
  19 C :   -0.028033
  20 C :   -0.052600
  21 C :   -0.009111
  22 C :   -0.023150
  23 C :   -0.043609
  24 H :   -0.103652
  25 H :   -0.014460
  26 H :   -0.003079
  27 H :   -0.008119
  28 H :   -0.001278
  29 H :   -0.065966
  30 H :   -0.060141
  31 H :   -0.064398
  32 H :   -0.048007
  33 H :   -0.066176
  34 H :   -0.086499
  35 H :   -0.047533
  36 H :   -0.052191
  37 H :   -0.047929
  38 H :   -0.090265
  39 H :   -0.047148
  40 H :   -0.074706
  41 H :   -0.065525
  42 H :   -0.047492
  43 H :   -0.065437
  44 H :   -0.085153
  45 H :   -0.046791
  46 H :   -0.081178
  47 H :   -0.075531
  48 H :   -0.045905
  49 H :   -0.049829
  50 H :   -0.076533
  51 H :   -0.049289
  52 H :   -0.068584
  53 H :   -0.075224
  54 H :   -0.049057
  55 H :   -0.113912
  56 H :   -0.075058
  57 H :   -0.045113
  58 H :   -0.071657
  59 H :   -0.056252
  60 H :   -0.047712
  61 H :   -0.078766
  62 H :   -0.068713
  63 H :   -0.047456
  64 H :   -0.077699
  65 H :   -0.107234

  Mayer bond orders larger than 0.100000
B(  0-Ru,  1-Se) :   0.5991 B(  0-Ru,  2-P ) :   0.9545 B(  0-Ru,  3-P ) :   0.9464
B(  0-Ru,  4-P ) :   0.8383 B(  0-Ru,  5-P ) :   1.0393 B(  0-Ru, 12-C ) :   0.1288
B(  0-Ru, 21-C ) :   0.1150 B(  0-Ru, 24-H ) :   0.7575 B(  0-Ru, 29-H ) :   0.2664
B(  1-Se,  3-P ) :  -0.3471 B(  1-Se,  4-P ) :   0.1964 B(  1-Se,  5-P ) :   0.1787
B(  1-Se,  6-C ) :   0.8326 B(  1-Se,  7-C ) :   0.1440 B(  1-Se, 11-C ) :   0.1236
B(  1-Se, 15-C ) :   0.1052 B(  1-Se, 23-C ) :  -0.1028 B(  1-Se, 29-H ) :   0.2605
B(  2-P ,  3-P ) :   0.3763 B(  2-P ,  5-P ) :   0.1856 B(  2-P , 13-C ) :   0.3164
B(  2-P , 14-C ) :   0.3904 B(  2-P , 24-H ) :  -0.2005 B(  2-P , 30-H ) :  -0.1316
B(  2-P , 31-H ) :  -0.1315 B(  2-P , 38-H ) :  -0.1131 B(  3-P , 15-C ) :   0.2656
B(  3-P , 16-C ) :   0.3992 B(  3-P , 17-C ) :   0.2604 B(  3-P , 24-H ) :   0.1519
B(  4-P ,  5-P ) :   0.1978 B(  4-P , 18-C ) :   0.4441 B(  4-P , 19-C ) :   0.2956
B(  4-P , 20-C ) :   0.4716 B(  4-P , 24-H ) :  -0.1620 B(  4-P , 49-H ) :  -0.1405
B(  4-P , 52-H ) :  -0.1349 B(  4-P , 56-H ) :  -0.1013 B(  5-P , 21-C ) :   0.4735
B(  5-P , 22-C ) :   0.3355 B(  5-P , 23-C ) :   0.4266 B(  5-P , 24-H ) :  -0.1432
B(  5-P , 59-H ) :  -0.1251 B(  6-C ,  7-C ) :   0.8645 B(  6-C , 11-C ) :   0.8093
B(  6-C , 25-H ) :  -0.1537 B(  6-C , 29-H ) :  -0.5140 B(  7-C ,  8-C ) :   1.2770
B(  7-C , 10-C ) :   0.1420 B(  7-C , 11-C ) :  -0.2639 B(  7-C , 25-H ) :   1.1120
B(  8-C ,  9-C ) :   0.9895 B(  8-C , 26-H ) :   1.1055 B(  8-C , 27-H ) :  -0.1048
B(  9-C , 10-C ) :   1.1227 B(  9-C , 27-H ) :   1.1605 B( 10-C , 11-C ) :   1.0371
B( 10-C , 27-H ) :  -0.1170 B( 10-C , 28-H ) :   1.0802 B( 11-C , 24-H ) :  -0.1677
B( 11-C , 28-H ) :  -0.1678 B( 11-C , 29-H ) :   1.1633 B( 12-C , 14-C ) :   0.1560
B( 12-C , 30-H ) :   1.0691 B( 12-C , 31-H ) :   1.0245 B( 12-C , 32-H ) :   0.7454
B( 13-C , 14-C ) :   0.1270 B( 13-C , 33-H ) :   0.9742 B( 13-C , 34-H ) :   1.0588
B( 13-C , 35-H ) :   0.7566 B( 14-C , 36-H ) :   1.0124 B( 14-C , 37-H ) :   0.8249
B( 14-C , 38-H ) :   1.0076 B( 15-C , 16-C ) :   0.1438 B( 15-C , 17-C ) :   0.1535
B( 15-C , 39-H ) :   0.7828 B( 15-C , 40-H ) :   1.0338 B( 15-C , 41-H ) :   1.0223
B( 16-C , 17-C ) :   0.1661 B( 16-C , 42-H ) :   0.8323 B( 16-C , 43-H ) :   1.0451
B( 16-C , 44-H ) :   0.9713 B( 17-C , 45-H ) :   0.8132 B( 17-C , 46-H ) :   0.9934
B( 17-C , 47-H ) :   1.0301 B( 18-C , 19-C ) :   0.1218 B( 18-C , 20-C ) :   0.1165
B( 18-C , 48-H ) :   0.7797 B( 18-C , 49-H ) :   1.0719 B( 18-C , 50-H ) :   1.0751
B( 19-C , 20-C ) :   0.1404 B( 19-C , 51-H ) :   0.7291 B( 19-C , 52-H ) :   1.1230
B( 19-C , 53-H ) :   0.9858 B( 20-C , 54-H ) :   0.7442 B( 20-C , 55-H ) :   1.1064
B( 20-C , 56-H ) :   0.9936 B( 21-C , 22-C ) :   0.1287 B( 21-C , 23-C ) :   0.1342
B( 21-C , 57-H ) :   0.7243 B( 21-C , 58-H ) :   1.0602 B( 21-C , 59-H ) :   1.1127
B( 22-C , 23-C ) :   0.1591 B( 22-C , 60-H ) :   0.7576 B( 22-C , 61-H ) :   0.9917
B( 22-C , 62-H ) :   1.0623 B( 23-C , 63-H ) :   0.7906 B( 23-C , 64-H ) :   0.9794
B( 23-C , 65-H ) :   1.0599 B( 24-H , 29-H ) :   0.1517 B( 33-H , 34-H ) :   0.1212
B( 36-H , 37-H ) :   0.1103 B( 40-H , 41-H ) :   0.1073 B( 46-H , 47-H ) :   0.1359
B( 55-H , 56-H ) :   0.1192 B( 61-H , 62-H ) :   0.1222

FINAL SINGLE POINT ENERGY     -4572.932091527278

DIPOLE MOMENT
-------------
                                X             Y             Z
Electronic contribution:      6.79317       3.76386      -7.26505
Nuclear contribution   :     -4.37445      -3.89216       7.69405
                        -----------------------------------------
Total Dipole Moment    :      2.41871      -0.12829       0.42900
                        -----------------------------------------
Magnitude (a.u.)       :      2.45981
Magnitude (Debye)      :      6.25235

Rotational constants in cm-1:     0.006518     0.004113     0.003881
Rotational constants in MHz :   195.407297   123.317842   116.359449

                             ****ORCA TERMINATED NORMALLY****
TOTAL RUN TIME: 0 days 2 hours 10 minutes 27 seconds 740 msec
