                         Program Version 4.2.0 -  RELEASE  -
|  1> #
|  2> # MOR31_pr20 wB97M-V/Def2-TZVPPD
|  3> #
|  4> ! wb97m-v def2-tzvppd def2/jk grid4 nofinalgrid
|  5>
|  6> *xyz 0 1
|  7> Ir       0.002477   -0.015286    0.083430
|  8> P       -2.348177   -0.226580   -0.058132
|  9> C       -2.872702   -1.550327   -1.188803
| 10> C       -3.160695   -0.601199    1.533451
| 11> H       -2.768983   -1.545856    1.920385
| 12> H       -3.035053    2.092169    0.038161
| 13> H       -4.244853   -0.682241    1.406776
| 14> H       -2.786362    1.529395   -1.637172
| 15> H       -3.965660   -1.602102   -1.229325
| 16> H       -2.934726    0.195116    2.248250
| 17> C       -3.202684    1.268779   -0.660861
| 18> H       -2.461852   -1.335119   -2.177902
| 19> H       -4.277134    1.082313   -0.755690
| 20> H       -2.448990   -2.494963   -0.841403
| 21> P        2.371733   -0.033051   -0.048079
| 22> C        3.118147   -1.146577    1.190097
| 23> C        2.988864   -0.646513   -1.645491
| 24> H        2.993037    2.252530   -0.586719
| 25> H        4.326367    1.397945    0.228668
| 26> H        2.927925    1.991387    1.168046
| 27> C        3.242996    1.555288    0.216058
| 28> H        4.081131   -0.719105   -1.623165
| 29> H        2.539412   -1.627874   -1.816909
| 30> H        4.198017   -1.226939    1.030710
| 31> H        2.645385   -2.126625    1.084325
| 32> H        2.665924    0.027013   -2.441495
| 33> H        2.928294   -0.762471    2.196181
| 34> C        0.041875   -0.376924    1.901008
| 35> O        0.060916   -0.624538    3.028225
| 36> Cl       0.274891   -2.517433   -0.343637
| 37> C       -0.190594    2.003978    0.494123
| 38> O       -0.529496    2.399253    1.599170
| 39> Cl      -0.136178    0.364638   -2.291447
| 40> C        0.062980    3.028488   -0.607541
| 41> H        0.210382    4.010245   -0.149220
| 42> H       -0.815546    3.056386   -1.260585
| 43> H        0.900599    2.750150   -1.247819
| 44> *
| 45>
| 46> %maxcore 5000
| 47>
| 48> %pal
| 49> nprocs = 24
| 50> end
| 51>
| 52>
| 53>                          ****END OF INPUT****

CARTESIAN COORDINATES (ANGSTROEM)
---------------------------------
  Ir     0.002477   -0.015286    0.083430
  P     -2.348177   -0.226580   -0.058132
  C     -2.872702   -1.550327   -1.188803
  C     -3.160695   -0.601199    1.533451
  H     -2.768983   -1.545856    1.920385
  H     -3.035053    2.092169    0.038161
  H     -4.244853   -0.682241    1.406776
  H     -2.786362    1.529395   -1.637172
  H     -3.965660   -1.602102   -1.229325
  H     -2.934726    0.195116    2.248250
  C     -3.202684    1.268779   -0.660861
  H     -2.461852   -1.335119   -2.177902
  H     -4.277134    1.082313   -0.755690
  H     -2.448990   -2.494963   -0.841403
  P      2.371733   -0.033051   -0.048079
  C      3.118147   -1.146577    1.190097
  C      2.988864   -0.646513   -1.645491
  H      2.993037    2.252530   -0.586719
  H      4.326367    1.397945    0.228668
  H      2.927925    1.991387    1.168046
  C      3.242996    1.555288    0.216058
  H      4.081131   -0.719105   -1.623165
  H      2.539412   -1.627874   -1.816909
  H      4.198017   -1.226939    1.030710
  H      2.645385   -2.126625    1.084325
  H      2.665924    0.027013   -2.441495
  H      2.928294   -0.762471    2.196181
  C      0.041875   -0.376924    1.901008
  O      0.060916   -0.624538    3.028225
  Cl     0.274891   -2.517433   -0.343637
  C     -0.190594    2.003978    0.494123
  O     -0.529496    2.399253    1.599170
  Cl    -0.136178    0.364638   -2.291447
  C      0.062980    3.028488   -0.607541
  H      0.210382    4.010245   -0.149220
  H     -0.815546    3.056386   -1.260585
  H      0.900599    2.750150   -1.247819

 Total Charge           Charge          ....    0
 Multiplicity           Mult            ....    1
 Number of Electrons    NEL             ....  172
 Basis Dimension        Dim             .... 1027

ORBITAL ENERGIES
----------------

  NO   OCC          E(Eh)            E(eV)
   0   2.0000    -101.809767     -2770.3846
   1   2.0000    -101.790221     -2769.8527
   2   2.0000     -77.426009     -2106.8688
   3   2.0000     -77.425794     -2106.8630
   4   2.0000     -19.427300      -528.6437
   5   2.0000     -19.319972      -525.7232
   6   2.0000     -10.497458      -285.6503
   7   2.0000     -10.437620      -284.0221
   8   2.0000     -10.367560      -282.1157
   9   2.0000     -10.364949      -282.0446
  10   2.0000     -10.361598      -281.9534
  11   2.0000     -10.359977      -281.9093
  12   2.0000     -10.352519      -281.7064
  13   2.0000     -10.351211      -281.6708
  14   2.0000     -10.339578      -281.3542
  15   2.0000      -9.583067      -260.7685
  16   2.0000      -9.562895      -260.2196
  17   2.0000      -7.285049      -198.2363
  18   2.0000      -7.280867      -198.1225
  19   2.0000      -7.280617      -198.1157
  20   2.0000      -7.264513      -197.6774
  21   2.0000      -7.260916      -197.5796
  22   2.0000      -7.260730      -197.5745
  23   2.0000      -6.772035      -184.2764
  24   2.0000      -6.771846      -184.2713
  25   2.0000      -4.884543      -132.9152
  26   2.0000      -4.884315      -132.9090
  27   2.0000      -4.884134      -132.9041
  28   2.0000      -4.883925      -132.8984
  29   2.0000      -4.882257      -132.8530
  30   2.0000      -4.882129      -132.8495
  31   2.0000      -3.878793      -105.5473
  32   2.0000      -2.217363       -60.3375
  33   2.0000      -2.206456       -60.0407
  34   2.0000      -2.199900       -59.8623
  35   2.0000      -1.277093       -34.7515
  36   2.0000      -1.163826       -31.6693
  37   2.0000      -0.924313       -25.1518
  38   2.0000      -0.920456       -25.0469
  39   2.0000      -0.879385       -23.9293
  40   2.0000      -0.854759       -23.2592
  41   2.0000      -0.851469       -23.1696
  42   2.0000      -0.839881       -22.8543
  43   2.0000      -0.838491       -22.8165
  44   2.0000      -0.832594       -22.6560
  45   2.0000      -0.830887       -22.6096
  46   2.0000      -0.721286       -19.6272
  47   2.0000      -0.689475       -18.7616
  48   2.0000      -0.675816       -18.3899
  49   2.0000      -0.652508       -17.7556
  50   2.0000      -0.618542       -16.8314
  51   2.0000      -0.599874       -16.3234
  52   2.0000      -0.592211       -16.1149
  53   2.0000      -0.580226       -15.7888
  54   2.0000      -0.577411       -15.7121
  55   2.0000      -0.565310       -15.3829
  56   2.0000      -0.562769       -15.3137
  57   2.0000      -0.559357       -15.2209
  58   2.0000      -0.556757       -15.1501
  59   2.0000      -0.553718       -15.0674
  60   2.0000      -0.545399       -14.8411
  61   2.0000      -0.536842       -14.6082
  62   2.0000      -0.531329       -14.4582
  63   2.0000      -0.527658       -14.3583
  64   2.0000      -0.526599       -14.3295
  65   2.0000      -0.519186       -14.1278
  66   2.0000      -0.509428       -13.8623
  67   2.0000      -0.508397       -13.8342
  68   2.0000      -0.485697       -13.2165
  69   2.0000      -0.478903       -13.0316
  70   2.0000      -0.470602       -12.8057
  71   2.0000      -0.468323       -12.7437
  72   2.0000      -0.460066       -12.5190
  73   2.0000      -0.457757       -12.4562
  74   2.0000      -0.454827       -12.3765
  75   2.0000      -0.432386       -11.7658
  76   2.0000      -0.425562       -11.5801
  77   2.0000      -0.415417       -11.3041
  78   2.0000      -0.408055       -11.1037
  79   2.0000      -0.406630       -11.0650
  80   2.0000      -0.375403       -10.2152
  81   2.0000      -0.354688        -9.6516
  82   2.0000      -0.347098        -9.4450
  83   2.0000      -0.342409        -9.3174
  84   2.0000      -0.338946        -9.2232
  85   2.0000      -0.311627        -8.4798
  86   0.0000       0.019090         0.5195
  87   0.0000       0.021751         0.5919
  88   0.0000       0.024483         0.6662
  89   0.0000       0.030336         0.8255
  90   0.0000       0.047605         1.2954

MULLIKEN ATOMIC CHARGES
-----------------------
   0 Ir:    1.144679
   1 P :    0.803639
   2 C :   -1.158852
   3 C :   -1.244893
   4 H :    0.309169
   5 H :    0.284401
   6 H :    0.416334
   7 H :    0.253835
   8 H :    0.415910
   9 H :    0.316555
  10 C :   -1.115014
  11 H :    0.283392
  12 H :    0.420227
  13 H :    0.303270
  14 P :    0.645883
  15 C :   -1.169005
  16 C :   -1.134344
  17 H :    0.297017
  18 H :    0.420239
  19 H :    0.284516
  20 C :   -1.157981
  21 H :    0.434467
  22 H :    0.274292
  23 H :    0.410931
  24 H :    0.310884
  25 H :    0.303242
  26 H :    0.298010
  27 C :    0.349756
  28 O :   -0.484446
  29 Cl:   -0.517737
  30 C :    0.551877
  31 O :   -0.631212
  32 Cl:   -0.479429
  33 C :   -1.335957
  34 H :    0.371980
  35 H :    0.283904
  36 H :    0.240462
Sum of atomic charges:   -0.0000000

LOEWDIN ATOMIC CHARGES
----------------------
   0 Ir:    0.491850
   1 P :    0.772400
   2 C :   -0.039013
   3 C :    0.003576
   4 H :   -0.041002
   5 H :   -0.045534
   6 H :   -0.040290
   7 H :   -0.067119
   8 H :   -0.040418
   9 H :   -0.041347
  10 C :   -0.003438
  11 H :   -0.072501
  12 H :   -0.039832
  13 H :   -0.089218
  14 P :    0.767539
  15 C :   -0.017271
  16 C :   -0.042171
  17 H :   -0.056205
  18 H :   -0.040807
  19 H :   -0.039574
  20 C :    0.006656
  21 H :   -0.040306
  22 H :   -0.079116
  23 H :   -0.040425
  24 H :   -0.081100
  25 H :   -0.079092
  26 H :   -0.047628
  27 C :   -0.400451
  28 O :    0.132029
  29 Cl:   -0.094370
  30 C :   -0.554299
  31 O :   -0.037302
  32 Cl:    0.012771
  33 C :    0.087658
  34 H :   -0.005125
  35 H :   -0.033539
  36 H :   -0.065987

  Mayer bond orders larger than 0.100000
B(  0-Ir,  1-P ) :   0.4993 B(  0-Ir, 14-P ) :   0.5701 B(  0-Ir, 27-C ) :   0.7797
B(  0-Ir, 29-Cl) :   0.4348 B(  0-Ir, 30-C ) :   0.5040 B(  0-Ir, 32-Cl) :   0.4070
B(  1-P ,  2-C ) :   0.7985 B(  1-P ,  3-C ) :   0.5736 B(  1-P , 10-C ) :   0.6835
B(  1-P , 30-C ) :   0.1221 B(  1-P , 32-Cl) :   0.2931 B(  2-C ,  8-H ) :   0.8433
B(  2-C , 11-H ) :   0.9651 B(  2-C , 13-H ) :   0.9667 B(  3-C ,  4-H ) :   0.9656
B(  3-C ,  6-H ) :   0.8407 B(  3-C ,  9-H ) :   0.9824 B(  5-H , 10-C ) :   0.9893
B(  7-H , 10-C ) :   1.0127 B( 10-C , 12-H ) :   0.8295 B( 14-P , 15-C ) :   0.6636
B( 14-P , 16-C ) :   0.8377 B( 14-P , 20-C ) :   0.5970 B( 14-P , 29-Cl) :   0.3207
B( 14-P , 30-C ) :   0.1184 B( 14-P , 32-Cl) :   0.1914 B( 15-C , 23-H ) :   0.8380
B( 15-C , 24-H ) :   0.9944 B( 15-C , 26-H ) :   0.9689 B( 16-C , 21-H ) :   0.8237
B( 16-C , 22-H ) :   0.9765 B( 16-C , 25-H ) :   0.9683 B( 17-H , 20-C ) :   0.9592
B( 18-H , 20-C ) :   0.8412 B( 19-H , 20-C ) :   1.0020 B( 27-C , 28-O ) :   1.9581
B( 27-C , 30-C ) :   0.1980 B( 30-C , 31-O ) :   1.4264 B( 30-C , 33-C ) :   0.5812
B( 30-C , 36-H ) :  -0.1376 B( 32-Cl, 33-C ) :   0.1058 B( 33-C , 34-H ) :   0.9400
B( 33-C , 35-H ) :   0.9818 B( 33-C , 36-H ) :   1.0706

FINAL SINGLE POINT ENERGY     -2213.634798588541

DIPOLE MOMENT
-------------
                                X             Y             Z
Electronic contribution:      0.16973      -7.77903      12.20273
Nuclear contribution   :     -0.04564       8.50954     -11.91616
                        -----------------------------------------
Total Dipole Moment    :      0.12409       0.73051       0.28657
                        -----------------------------------------
Magnitude (a.u.)       :      0.79446
Magnitude (Debye)      :      2.01935

Rotational constants in cm-1:     0.013559     0.009254     0.008806
Rotational constants in MHz :   406.483484   277.425577   264.007304

                             ****ORCA TERMINATED NORMALLY****
TOTAL RUN TIME: 0 days 0 hours 29 minutes 30 seconds 685 msec
