                         Program Version 4.2.0 -  RELEASE  -
|  1> #
|  2> # MOR37_pr38 wB97M-V/Def2-TZVPPD
|  3> #
|  4> ! wb97m-v def2-tzvppd def2/jk grid4 nofinalgrid
|  5>
|  6> *xyz 0 1
|  7> Mo       0.000368   -0.000951   -0.664236
|  8> C        1.186218    1.095679   -1.824431
|  9> C       -1.543342    0.475450   -1.823831
| 10> C        0.358600   -1.578355   -1.821075
| 11> O        0.584740   -2.492846   -2.512436
| 12> O        1.864319    1.747384   -2.517871
| 13> O       -2.447606    0.735637   -2.516687
| 14> P        1.980785   -0.729448    0.688588
| 15> P       -1.623545   -1.348294    0.688464
| 16> P       -0.357708    2.080403    0.685812
| 17> C       -1.633250    3.223236    0.009653
| 18> H       -1.705660    4.145387    0.596929
| 19> H       -2.603028    2.718106    0.000627
| 20> H       -1.373511    3.465952   -1.024212
| 21> C       -0.858884    2.043709    2.465539
| 22> H       -1.825180    1.541749    2.565977
| 23> H       -0.943418    3.056285    2.875390
| 24> H       -0.120247    1.484663    3.045786
| 25> C        1.092608    3.215640    0.782943
| 26> H        0.848407    4.138527    1.320517
| 27> H        1.418994    3.459201   -0.231490
| 28> H        1.920240    2.713456    1.291867
| 29> C       -1.984130   -3.020964    0.008508
| 30> H       -2.747676   -3.543086    0.595776
| 31> H       -1.064326   -3.612180   -0.003877
| 32> H       -2.325682   -2.913010   -1.024422
| 33> C       -1.336917   -1.769970    2.466070
| 34> H       -2.171293   -2.349509    2.876428
| 35> H       -1.219304   -0.852646    3.048800
| 36> H       -0.419591   -2.357379    2.562237
| 37> C       -3.329045   -0.653966    0.792955
| 38> H       -4.006858   -1.325859    1.330979
| 39> H       -3.705797   -0.489375   -0.219919
| 40> H       -3.303097    0.312486    1.304224
| 41> C        3.608641   -0.198569    0.011444
| 42> H        4.443241   -0.596886    0.599054
| 43> H        3.657034    0.893802    0.001026
| 44> H        3.688452   -0.546249   -1.021993
| 45> C        2.199807   -0.272940    2.467201
| 46> H        3.119209   -0.704894    2.877753
| 47> H        1.346620   -0.631939    3.048604
| 48> H        2.248134    0.815142    2.564989
| 49> C        2.238042   -2.552971    0.789569
| 50> H        3.157648   -2.802349    1.330381
| 51> H        2.288935   -2.958854   -0.224143
| 52> H        1.387609   -3.017788    1.296348
| 53> *
| 54>
| 55> %maxcore 5000
| 56>
| 57> %pal
| 58> nprocs = 24
| 59> end
| 60>
| 61>
| 62>                          ****END OF INPUT****

CARTESIAN COORDINATES (ANGSTROEM)
---------------------------------
  Mo     0.000368   -0.000951   -0.664236
  C      1.186218    1.095679   -1.824431
  C     -1.543342    0.475450   -1.823831
  C      0.358600   -1.578355   -1.821075
  O      0.584740   -2.492846   -2.512436
  O      1.864319    1.747384   -2.517871
  O     -2.447606    0.735637   -2.516687
  P      1.980785   -0.729448    0.688588
  P     -1.623545   -1.348294    0.688464
  P     -0.357708    2.080403    0.685812
  C     -1.633250    3.223236    0.009653
  H     -1.705660    4.145387    0.596929
  H     -2.603028    2.718106    0.000627
  H     -1.373511    3.465952   -1.024212
  C     -0.858884    2.043709    2.465539
  H     -1.825180    1.541749    2.565977
  H     -0.943418    3.056285    2.875390
  H     -0.120247    1.484663    3.045786
  C      1.092608    3.215640    0.782943
  H      0.848407    4.138527    1.320517
  H      1.418994    3.459201   -0.231490
  H      1.920240    2.713456    1.291867
  C     -1.984130   -3.020964    0.008508
  H     -2.747676   -3.543086    0.595776
  H     -1.064326   -3.612180   -0.003877
  H     -2.325682   -2.913010   -1.024422
  C     -1.336917   -1.769970    2.466070
  H     -2.171293   -2.349509    2.876428
  H     -1.219304   -0.852646    3.048800
  H     -0.419591   -2.357379    2.562237
  C     -3.329045   -0.653966    0.792955
  H     -4.006858   -1.325859    1.330979
  H     -3.705797   -0.489375   -0.219919
  H     -3.303097    0.312486    1.304224
  C      3.608641   -0.198569    0.011444
  H      4.443241   -0.596886    0.599054
  H      3.657034    0.893802    0.001026
  H      3.688452   -0.546249   -1.021993
  C      2.199807   -0.272940    2.467201
  H      3.119209   -0.704894    2.877753
  H      1.346620   -0.631939    3.048604
  H      2.248134    0.815142    2.564989
  C      2.238042   -2.552971    0.789569
  H      3.157648   -2.802349    1.330381
  H      2.288935   -2.958854   -0.224143
  H      1.387609   -3.017788    1.296348

 Total Charge           Charge          ....    0
 Multiplicity           Mult            ....    1
 Number of Electrons    NEL             ....  182
 Basis Dimension        Dim             .... 1223

ORBITAL ENERGIES
----------------

  NO   OCC          E(Eh)            E(eV)
   0   2.0000     -77.393721     -2105.9902
   1   2.0000     -77.393717     -2105.9901
   2   2.0000     -77.393701     -2105.9897
   3   2.0000     -19.362626      -526.8839
   4   2.0000     -19.362621      -526.8837
   5   2.0000     -19.362612      -526.8835
   6   2.0000     -10.423440      -283.6362
   7   2.0000     -10.423434      -283.6361
   8   2.0000     -10.423423      -283.6358
   9   2.0000     -10.354058      -281.7482
  10   2.0000     -10.354045      -281.7479
  11   2.0000     -10.354032      -281.7475
  12   2.0000     -10.348362      -281.5933
  13   2.0000     -10.348327      -281.5923
  14   2.0000     -10.348308      -281.5918
  15   2.0000     -10.345199      -281.5072
  16   2.0000     -10.345186      -281.5068
  17   2.0000     -10.345160      -281.5061
  18   2.0000      -6.739527      -183.3919
  19   2.0000      -6.739524      -183.3918
  20   2.0000      -6.739513      -183.3915
  21   2.0000      -4.852377      -132.0399
  22   2.0000      -4.852373      -132.0398
  23   2.0000      -4.852358      -132.0394
  24   2.0000      -4.852154      -132.0338
  25   2.0000      -4.852152      -132.0338
  26   2.0000      -4.852137      -132.0334
  27   2.0000      -4.848608      -131.9373
  28   2.0000      -4.848600      -131.9371
  29   2.0000      -4.848599      -131.9371
  30   2.0000      -2.627258       -71.4913
  31   2.0000      -1.625720       -44.2381
  32   2.0000      -1.625713       -44.2379
  33   2.0000      -1.625175       -44.2232
  34   2.0000      -1.209146       -32.9025
  35   2.0000      -1.208526       -32.8857
  36   2.0000      -1.208518       -32.8854
  37   2.0000      -0.905389       -24.6369
  38   2.0000      -0.899293       -24.4710
  39   2.0000      -0.899285       -24.4708
  40   2.0000      -0.828012       -22.5313
  41   2.0000      -0.824558       -22.4374
  42   2.0000      -0.824499       -22.4358
  43   2.0000      -0.820007       -22.3135
  44   2.0000      -0.819980       -22.3128
  45   2.0000      -0.818631       -22.2761
  46   2.0000      -0.677875       -18.4459
  47   2.0000      -0.659820       -17.9546
  48   2.0000      -0.659806       -17.9542
  49   2.0000      -0.646456       -17.5910
  50   2.0000      -0.638114       -17.3640
  51   2.0000      -0.638104       -17.3637
  52   2.0000      -0.577818       -15.7232
  53   2.0000      -0.565602       -15.3908
  54   2.0000      -0.565529       -15.3888
  55   2.0000      -0.553290       -15.0558
  56   2.0000      -0.553229       -15.0541
  57   2.0000      -0.550811       -14.9883
  58   2.0000      -0.546138       -14.8612
  59   2.0000      -0.541897       -14.7458
  60   2.0000      -0.541896       -14.7457
  61   2.0000      -0.533624       -14.5206
  62   2.0000      -0.529780       -14.4160
  63   2.0000      -0.529707       -14.4141
  64   2.0000      -0.524124       -14.2621
  65   2.0000      -0.521707       -14.1964
  66   2.0000      -0.521664       -14.1952
  67   2.0000      -0.516690       -14.0599
  68   2.0000      -0.509839       -13.8734
  69   2.0000      -0.509772       -13.8716
  70   2.0000      -0.507791       -13.8177
  71   2.0000      -0.505048       -13.7431
  72   2.0000      -0.505018       -13.7422
  73   2.0000      -0.502810       -13.6822
  74   2.0000      -0.498289       -13.5591
  75   2.0000      -0.496369       -13.5069
  76   2.0000      -0.496288       -13.5047
  77   2.0000      -0.492833       -13.4107
  78   2.0000      -0.492815       -13.4102
  79   2.0000      -0.444210       -12.0876
  80   2.0000      -0.442219       -12.0334
  81   2.0000      -0.442190       -12.0326
  82   2.0000      -0.434135       -11.8134
  83   2.0000      -0.434119       -11.8130
  84   2.0000      -0.432572       -11.7709
  85   2.0000      -0.374337       -10.1862
  86   2.0000      -0.359461        -9.7814
  87   2.0000      -0.359415        -9.7802
  88   2.0000      -0.266644        -7.2558
  89   2.0000      -0.266639        -7.2556
  90   2.0000      -0.265115        -7.2141
  91   0.0000       0.017515         0.4766
  92   0.0000       0.034480         0.9383
  93   0.0000       0.034520         0.9393
  94   0.0000       0.041228         1.1219
  95   0.0000       0.051292         1.3957

MULLIKEN ATOMIC CHARGES
-----------------------
   0 Mo:   -0.626350
   1 C :    0.272991
   2 C :    0.270276
   3 C :    0.270490
   4 O :   -0.474266
   5 O :   -0.473880
   6 O :   -0.473586
   7 P :    1.312119
   8 P :    1.299147
   9 P :    1.293880
  10 C :   -1.430866
  11 H :    0.442872
  12 H :    0.319850
  13 H :    0.313848
  14 C :   -1.251134
  15 H :    0.304634
  16 H :    0.452309
  17 H :    0.215395
  18 C :   -1.210012
  19 H :    0.418075
  20 H :    0.297489
  21 H :    0.243450
  22 C :   -1.432521
  23 H :    0.441958
  24 H :    0.319638
  25 H :    0.316343
  26 C :   -1.256123
  27 H :    0.451986
  28 H :    0.216409
  29 H :    0.304471
  30 C :   -1.213158
  31 H :    0.416608
  32 H :    0.296135
  33 H :    0.244712
  34 C :   -1.434673
  35 H :    0.441959
  36 H :    0.320695
  37 H :    0.315585
  38 C :   -1.250588
  39 H :    0.451329
  40 H :    0.217268
  41 H :    0.301977
  42 C :   -1.215071
  43 H :    0.416174
  44 H :    0.297733
  45 H :    0.244423
Sum of atomic charges:    0.0000000

LOEWDIN ATOMIC CHARGES
----------------------
   0 Mo:    0.048303
   1 C :   -0.302789
   2 C :   -0.302858
   3 C :   -0.302787
   4 O :    0.037009
   5 O :    0.037034
   6 O :    0.036970
   7 P :    0.842329
   8 P :    0.842204
   9 P :    0.842228
  10 C :   -0.024335
  11 H :   -0.048717
  12 H :   -0.056699
  13 H :   -0.046734
  14 C :   -0.025642
  15 H :   -0.074061
  16 H :   -0.047629
  17 H :   -0.072994
  18 C :   -0.019924
  19 H :   -0.047518
  20 H :   -0.056915
  21 H :   -0.071345
  22 C :   -0.024406
  23 H :   -0.048754
  24 H :   -0.056532
  25 H :   -0.046733
  26 C :   -0.025824
  27 H :   -0.047662
  28 H :   -0.072727
  29 H :   -0.073945
  30 C :   -0.019827
  31 H :   -0.047490
  32 H :   -0.056886
  33 H :   -0.071742
  34 C :   -0.024425
  35 H :   -0.048715
  36 H :   -0.056638
  37 H :   -0.046768
  38 C :   -0.025894
  39 H :   -0.047683
  40 H :   -0.072841
  41 H :   -0.073883
  42 C :   -0.019910
  43 H :   -0.047515
  44 H :   -0.056860
  45 H :   -0.071466

  Mayer bond orders larger than 0.100000
B(  0-Mo,  1-C ) :   1.2386 B(  0-Mo,  2-C ) :   1.2379 B(  0-Mo,  3-C ) :   1.2340
B(  0-Mo,  7-P ) :   0.4918 B(  0-Mo,  8-P ) :   0.4894 B(  0-Mo,  9-P ) :   0.4918
B(  0-Mo, 10-C ) :   0.1003 B(  1-C ,  2-C ) :  -0.1505 B(  1-C ,  3-C ) :  -0.1506
B(  1-C ,  5-O ) :   1.6730 B(  2-C ,  3-C ) :  -0.1499 B(  2-C ,  6-O ) :   1.6723
B(  3-C ,  4-O ) :   1.6723 B(  7-P ,  8-P ) :   0.1661 B(  7-P ,  9-P ) :   0.1663
B(  7-P , 34-C ) :   0.4412 B(  7-P , 38-C ) :   0.6192 B(  7-P , 42-C ) :   0.5669
B(  8-P ,  9-P ) :   0.1690 B(  8-P , 22-C ) :   0.4419 B(  8-P , 26-C ) :   0.6195
B(  8-P , 30-C ) :   0.5706 B(  9-P , 10-C ) :   0.4386 B(  9-P , 14-C ) :   0.6245
B(  9-P , 18-C ) :   0.5722 B( 10-C , 11-H ) :   0.8215 B( 10-C , 12-H ) :   0.9829
B( 10-C , 13-H ) :   0.9818 B( 10-C , 18-C ) :   0.1091 B( 14-C , 15-H ) :   0.9549
B( 14-C , 16-H ) :   0.8323 B( 14-C , 17-H ) :   1.0597 B( 14-C , 18-C ) :   0.1049
B( 18-C , 19-H ) :   0.8638 B( 18-C , 20-H ) :   0.9761 B( 18-C , 21-H ) :   1.0089
B( 22-C , 23-H ) :   0.8231 B( 22-C , 24-H ) :   0.9812 B( 22-C , 25-H ) :   0.9792
B( 22-C , 30-C ) :   0.1097 B( 26-C , 27-H ) :   0.8327 B( 26-C , 28-H ) :   1.0607
B( 26-C , 29-H ) :   0.9555 B( 26-C , 30-C ) :   0.1063 B( 30-C , 31-H ) :   0.8661
B( 30-C , 32-H ) :   0.9772 B( 30-C , 33-H ) :   1.0079 B( 34-C , 35-H ) :   0.8237
B( 34-C , 36-H ) :   0.9802 B( 34-C , 37-H ) :   0.9803 B( 34-C , 42-C ) :   0.1090
B( 38-C , 39-H ) :   0.8341 B( 38-C , 40-H ) :   1.0577 B( 38-C , 41-H ) :   0.9563
B( 38-C , 42-C ) :   0.1057 B( 42-C , 43-H ) :   0.8665 B( 42-C , 44-H ) :   0.9765
B( 42-C , 45-H ) :   1.0095

FINAL SINGLE POINT ENERGY     -1791.549975834806

DIPOLE MOMENT
-------------
                                X             Y             Z
Electronic contribution:      0.03078      -0.08954     -63.26467
Nuclear contribution   :     -0.03125       0.09337      66.31953
                        -----------------------------------------
Total Dipole Moment    :     -0.00048       0.00384       3.05486
                        -----------------------------------------
Magnitude (a.u.)       :      3.05486
Magnitude (Debye)      :      7.76485

Rotational constants in cm-1:     0.008677     0.008672     0.007610
Rotational constants in MHz :   260.126059   259.983430   228.154635

                             ****ORCA TERMINATED NORMALLY****
TOTAL RUN TIME: 0 days 0 hours 43 minutes 12 seconds 855 msec
