                         Program Version 4.2.0 -  RELEASE  -
|  1> # input to generate an atomic fitting density for I
|  2> # this file is use internally by ORCA
|  3> #
|  4> # atomic ground state (S=2): 1s2 2s2 2p6 3s2 3p6 4s2 3d10 4p6 5s2 4d10 5p5
|  5> #
|  6> ! RHF AllowRHF def2-SVP def2/J  NoMulliken NoLoewdin NoMayer NoPrintMOs
|  7>
|  8> %output print[p_atomdensfit] 2 end
|  9>
| 10> %scf
| 11>   guess hcore
| 12>   maxiter 1000
| 13>   maxdisk 500000
| 14>   SCFMode Conventional
| 15>   lshift 1.000000
| 16>   hftyp rohf
| 17>   rohf_case sahf
| 18>   rohf_numop   2
| 19>   rohf_norb[1] 3
| 20>   rohf_nel[1]  5
| 21> end
| 22>
| 23> %basis
| 24>   NewECP 53
| 25>     N_core 28
| 26>     lmax f
| 27>     s 7
| 28>       1      40.0158350000     49.9942930000  2
| 29>       2      17.4297470000    281.0253170000  2
| 30>       3       9.0054840000     61.5733260000  2
| 31>       4      19.4586090000     21.8420400000  2
| 32>       5      19.3492600000     28.4681910000  2
| 33>       6       4.8237670000      0.2437130000  2
| 34>       7       4.8843150000      0.3208040000  2
| 35>     p 8
| 36>       1      15.3554660000     67.4428410000  2
| 37>       2      14.9718330000    134.8811370000  2
| 38>       3       8.9601640000     14.6750510000  2
| 39>       4       8.2590960000     29.3756660000  2
| 40>       5      19.4586090000     21.8420400000  2
| 41>       6      19.3492600000     28.4681910000  2
| 42>       7       4.8237670000      0.2437130000  2
| 43>       8       4.8843150000      0.3208040000  2
| 44>     d 10
| 45>       1      15.0689080000     35.4395290000  2
| 46>       2      14.5553220000     53.1760570000  2
| 47>       3       6.7186470000      9.0671950000  2
| 48>       4       6.4563930000     13.2069370000  2
| 49>       5       1.1917790000      0.0893350000  2
| 50>       6       1.2911570000      0.0523800000  2
| 51>       7      19.4586090000     21.8420400000  2
| 52>       8      19.3492600000     28.4681910000  2
| 53>       9       4.8237670000      0.2437130000  2
| 54>      10       4.8843150000      0.3208040000  2
| 55>     f 4
| 56>       1      19.4586090000    -21.8420400000  2
| 57>       2      19.3492600000    -28.4681910000  2
| 58>       3       4.8237670000     -0.2437130000  2
| 59>       4       4.8843150000     -0.3208040000  2
| 60>   end
| 61>   NewGTO 53
| 62>     s 5
| 63>      1    5899.5791533000      0.0002610056
| 64>      2     898.5423876500      0.0016697400
| 65>      3     200.3723791200      0.0046223298
| 66>      4      31.4180538400     -0.0425342684
| 67>      5      15.6459878380      1.0368318419
| 68>     s 2
| 69>      1      11.8157418570      0.6510798928
| 70>      2       6.4614458287      0.3642365936
| 71>     s 1
| 72>      1       2.3838067579      1.0000000000
| 73>     s 1
| 74>      1       1.1712089662      1.0000000000
| 75>     s 1
| 76>      1       0.3211587576      1.0000000000
| 77>     s 1
| 78>      1       0.1238791936      1.0000000000
| 79>     p 3
| 80>      1     197.3003054700      0.0031927743
| 81>      2      20.0614113490      0.2856760152
| 82>      3       9.7631460485     -1.2328204991
| 83>     p 4
| 84>      1      12.9843169040     -0.0386816591
| 85>      2       3.6199503008      0.3065970959
| 86>      3       2.0232273090      0.5169312450
| 87>      4       1.0367490559      0.2505722415
| 88>     p 1
| 89>      1       0.4593781600      1.0000000000
| 90>     p 1
| 91>      1       0.1911653293      1.0000000000
| 92>     p 1
| 93>      1       0.0748788130      1.0000000000
| 94>     s 1
| 95>      1       0.0434915506      1.0000000000
| 96>     p 1
| 97>      1       0.0216534918      1.0000000000
| 98>   end
| 99>   NewAuxGTO 53
|100>     S 1
|101>      1 1310.72 1.0
|102>     S 1
|103>      1  655.36 1.0
|104>     S 1
|105>      1  327.68 1.0
|106>     S 1
|107>      1  163.84 1.0
|108>     S 1
|109>      1   81.82 1.0
|110>     S 1
|111>      1   40.96 1.0
|112>     S 1
|113>      1   20.48 1.0
|114>     S 1
|115>      1   10.24 1.0
|116>     S 1
|117>      1    5.12 1.0
|118>     S 1
|119>      1    2.56 1.0
|120>     S 1
|121>      1    1.28 1.0
|122>     S 1
|123>      1    0.64 1.0
|124>     S 1
|125>      1    0.32 1.0
|126>     S 1
|127>      1    0.16 1.0
|128>     S 1
|129>      1    0.08 1.0
|130>     S 1
|131>      1    0.04 1.0
|132>     S 1
|133>      1    0.02 1.0
|134>     S 1
|135>      1    0.01 1.0
|136>   end
|137> end
|138>
|139> * xyz 0 2
|140> 53  0.0 0.0 0.0
|141> *
|142>
|143>
|144>                          ****END OF INPUT****

CARTESIAN COORDINATES (ANGSTROEM)
---------------------------------
  I      0.000000    0.000000    0.000000

 Total Charge           Charge          ....    0
 Multiplicity           Mult            ....    2
 Number of Electrons    NEL             ....   25
 Basis Dimension        Dim             ....   25

ORBITAL ENERGIES
----------------

  NO   OCC          E(Eh)            E(eV)
   0   2.0000     -13.074026      -355.7623
   1   2.0000     -10.539872      -286.8045
   2   2.0000     -10.539872      -286.8045
   3   2.0000     -10.537482      -286.7395
   4   2.0000      -3.605972       -98.1235
   5   2.0000      -2.484589       -67.6091
   6   2.0000      -2.484589       -67.6091
   7   2.0000      -2.478356       -67.4395
   8   2.0000      -0.744816       -20.2675
   9   2.0000      -0.397089       -10.8054
  10   1.6667      -0.402972       -10.9654
  11   1.6667      -0.402972       -10.9654
  12   1.6667      -0.075057        -2.0424
  13   0.0000       0.026175         0.7123
  14   0.0000       0.026175         0.7123
  15   0.0000       0.028576         0.7776
  16   0.0000       0.344624         9.3777
  17   0.0000       0.344624         9.3777

CleanUpVectors: The p-vectors have cracked symmetry
CleanUpVectors: The p-vectors have cracked symmetry
CleanUpVectors: The p-vectors have cracked symmetry
CleanUpVectors: The p-vectors have cracked symmetry
CleanUpVectors: The p-vectors have cracked symmetry
CleanUpVectors: The p-vectors have cracked symmetry
CleanUpVectors: The p-vectors have cracked symmetry
CleanUpVectors: The p-vectors have cracked symmetry
CleanUpVectors: The p-vectors have cracked symmetry
CleanUpVectors: The p-vectors have cracked symmetry
CleanUpVectors: The p-vectors have cracked symmetry
CleanUpVectors: The p-vectors have cracked symmetry
CleanUpVectors: The p-vectors have cracked symmetry
CleanUpVectors: The p-vectors have cracked symmetry
CleanUpVectors: The p-vectors have cracked symmetry
CleanUpVectors: The p-vectors have cracked symmetry
CleanUpVectors: The p-vectors have cracked symmetry
CleanUpVectors: The p-vectors have cracked symmetry
--------------------------
ATOM BASIS FOR ELEMENT I
--------------------------
 NewGTO I
 S 12
    1       5899.579153300000        -0.000170459472
    2        898.542387650000        -0.001090486177
    3        200.372379120000        -0.003018785411
    4         31.418053840000         0.027778595310
    5         15.645987838000        -0.677141825268
    6         11.815741857000         0.875867485469
    7          6.461445828700         0.489990541684
    8          2.383806757900        -1.253247086316
    9          1.171208966200        -0.241066042497
   10          0.321158757600        -0.009214026660
   11          0.123879193600         0.005096258567
   12          0.043491550600        -0.001480994045
 P 23
    1        197.300305470000        -0.000290083141
    2         20.061411349000        -0.025955419374
    3          9.763146048500         0.112009309023
    4        197.300305470000        -0.000479756513
    5         20.061411349000        -0.042926594858
    6          9.763146048500         0.185247564661
    7        197.300305470000         0.000023184636
    8         20.061411349000         0.002074463731
    9          9.763146048500        -0.008952244066
   10         12.984316904000         0.023418505746
   11          3.619950300800        -0.185618870002
   12          2.023227309000        -0.312958585873
   13          1.036749055900        -0.151700511659
   14         12.984316904000         0.038730898309
   15          3.619950300800        -0.306987373844
   16          2.023227309000        -0.517589264486
   17          1.036749055900        -0.250891203488
   18         12.984316904000        -0.001871703173
   19          3.619950300800         0.014835422537
   20          2.023227309000         0.025012935689
   21          1.036749055900         0.012124528016
   22          0.459378160000         0.100051348976
   23          0.459378160000         0.165470788995
 S 12
    1       5899.579153300000        -0.000139750027
    2        898.542387650000        -0.000894027602
    3        200.372379120000        -0.002474930485
    4         31.418053840000         0.022774090571
    5         15.645987838000        -0.555150074583
    6         11.815741857000         0.753649439376
    7          6.461445828700         0.421617542797
    8          2.383806757900        -2.084396580991
    9          1.171208966200         0.947709074273
   10          0.321158757600         1.147867503623
   11          0.123879193600        -0.324990444904
   12          0.043491550600         0.086039571468
 P 23
    1        197.300305470000        -0.000111104490
    2         20.061411349000        -0.009941162450
    3          9.763146048500         0.042900587383
    4        197.300305470000        -0.000184664999
    5         20.061411349000        -0.016523047401
    6          9.763146048500         0.071304381394
    7        197.300305470000         0.000000283494
    8         20.061411349000         0.000025365830
    9          9.763146048500        -0.000109464967
   10         12.984316904000         0.015320203831
   11          3.619950300800        -0.121430417217
   12          2.023227309000        -0.204735066289
   13          1.036749055900        -0.099241291700
   14         12.984316904000         0.025463466205
   15          3.619950300800        -0.201827557857
   16          2.023227309000        -0.340286885145
   17          1.036749055900        -0.164947366576
   18         12.984316904000        -0.000039090971
   19          3.619950300800         0.000309841366
   20          2.023227309000         0.000522401175
   21          1.036749055900         0.000253223682
   22          0.459378160000         0.786784319466
   23          0.459378160000         1.307701656608
 S 12
    1       5899.579153300000         0.000207626819
    2        898.542387650000         0.001328258111
    3        200.372379120000         0.003677007827
    4         31.418053840000        -0.033835499537
    5         15.645987838000         0.824787274512
    6         11.815741857000        -1.128070316162
    7          6.461445828700        -0.631081521399
    8          2.383806757900         4.725383743769
    9          1.171208966200        -5.859647864758
   10          0.321158757600         4.497449100019
   11          0.123879193600        -3.232075209712
   12          0.043491550600         1.035546708339
 P 23
    1        197.300305470000        -0.002075657358
    2         20.061411349000        -0.185721089965
    3          9.763146048500         0.801470038232
    4        197.300305470000        -0.003481525293
    5         20.061411349000        -0.311512239536
    6          9.763146048500         1.344315427923
    7        197.300305470000        -0.000292029218
    8         20.061411349000        -0.026129546120
    9          9.763146048500         0.112760744251
   10         12.984316904000         0.016859512300
   11          3.619950300800        -0.133631225485
   12          2.023227309000        -0.225305968923
   13          1.036749055900        -0.109212631665
   14         12.984316904000         0.028278664717
   15          3.619950300800        -0.224141277281
   16          2.023227309000        -0.377908437719
   17          1.036749055900        -0.183183673336
   18         12.984316904000         0.002372005270
   19          3.619950300800        -0.018800898002
   20          2.023227309000        -0.031698837796
   21          1.036749055900        -0.015365387402
   22          0.459378160000         0.353026549307
   23          0.459378160000         0.592135718194
 P 23
    1        197.300305470000         0.000009958504
    2         20.061411349000         0.000891045061
    3          9.763146048500        -0.003845260220
    4        197.300305470000        -0.000006321930
    5         20.061411349000        -0.000565659738
    6          9.763146048500         0.002441076198
    7        197.300305470000        -0.000215189013
    8         20.061411349000        -0.019254207785
    9          9.763146048500         0.083090566897
   10         12.984316904000        -0.001373178643
   11          3.619950300800         0.010884036358
   12          2.023227309000         0.018350788512
   13          1.036749055900         0.008895183364
   14         12.984316904000         0.000871731303
   15          3.619950300800        -0.006909483512
   16          2.023227309000        -0.011649581689
   17          1.036749055900        -0.005646905318
   18         12.984316904000         0.029672424061
   19          3.619950300800        -0.235188439613
   20          2.023227309000        -0.396534261168
   21          1.036749055900        -0.192212174469
   22          0.459378160000        -0.070520956243
   23          0.459378160000         0.044768628881
 P 23
    1        197.300305470000        -0.000041672646
    2         20.061411349000        -0.003728693054
    3          9.763146048500         0.016090987646
    4        197.300305470000        -0.000069571283
    5         20.061411349000        -0.006224945801
    6          9.763146048500         0.026863441036
    7        197.300305470000        -0.000002789421
    8         20.061411349000        -0.000249585639
    9          9.763146048500         0.001077074291
   10         12.984316904000         0.006779074157
   11          3.619950300800        -0.053732039881
   12          2.023227309000        -0.090593716129
   13          1.036749055900        -0.043913519904
   14         12.984316904000         0.011317469312
   15          3.619950300800        -0.089704095037
   16          2.023227309000        -0.151243603248
   17          1.036749055900        -0.073312358355
   18         12.984316904000         0.000453767454
   19          3.619950300800        -0.003596634342
   20          2.023227309000        -0.006064025698
   21          1.036749055900        -0.002939417043
   22          0.459378160000         0.606379217241
   23          0.459378160000         1.012332661342
 P 23
    1        197.300305470000        -0.000010396044
    2         20.061411349000        -0.000930194300
    3          9.763146048500         0.004014206793
    4        197.300305470000        -0.000018348969
    5         20.061411349000        -0.001641788610
    6          9.763146048500         0.007085056306
    7        197.300305470000        -0.000010037266
    8         20.061411349000        -0.000898092375
    9          9.763146048500         0.003875672550
   10         12.984316904000         0.001748878708
   11          3.619950300800        -0.013861895931
   12          2.023227309000        -0.023371542711
   13          1.036749055900        -0.011328895092
   14         12.984316904000         0.003086762779
   15          3.619950300800        -0.024466181798
   16          2.023227309000        -0.041250664100
   17          1.036749055900        -0.019995447106
   18         12.984316904000         0.001688523175
   19          3.619950300800        -0.013383508204
   20          2.023227309000        -0.022564967675
   21          1.036749055900        -0.010937923726
   22          0.459378160000         0.160161051304
   23          0.459378160000         0.282683510071
 P 23
    1        197.300305470000         0.000001912462
    2         20.061411349000         0.000171119027
    3          9.763146048500        -0.000738455569
    4        197.300305470000        -0.000005712832
    5         20.061411349000        -0.000511160176
    6          9.763146048500         0.002205886074
    7        197.300305470000        -0.000083643276
    8         20.061411349000        -0.007484048531
    9          9.763146048500         0.032297035642
   10         12.984316904000        -0.000318534908
   11          3.619950300800         0.002524759281
   12          2.023227309000         0.004256814483
   13          1.036749055900         0.002063406994
   14         12.984316904000         0.000951515227
   15          3.619950300800        -0.007541863818
   16          2.023227309000        -0.012715792501
   17          1.036749055900        -0.006163730013
   18         12.984316904000         0.013931418104
   19          3.619950300800        -0.110422676580
   20          2.023227309000        -0.186175708916
   21          1.036749055900        -0.090245008688
   22          0.459378160000        -0.038438083079
   23          0.459378160000         0.114820763400
 P 23
    1        197.300305470000        -0.003477114310
    2         20.061411349000        -0.311117563339
    3          9.763146048500         1.342612222613
    4        197.300305470000         0.002091679394
    5         20.061411349000         0.187154674305
    6          9.763146048500        -0.807656599466
    7        197.300305470000        -0.000222364088
    8         20.061411349000        -0.019896203299
    9          9.763146048500         0.085861066299
   10         12.984316904000         0.028245497448
   11          3.619950300800        -0.223878388138
   12          2.023227309000        -0.377465199300
   13          1.036749055900        -0.182968822240
   14         12.984316904000        -0.016991251856
   15          3.619950300800         0.134675414548
   16          2.023227309000         0.227066500773
   17          1.036749055900         0.110066014811
   18         12.984316904000         0.001806320908
   19          3.619950300800        -0.014317192115
   20          2.023227309000        -0.024139184760
   21          1.036749055900        -0.011700994459
   22          0.459378160000         0.591513148275
   23          0.459378160000        -0.355828354479
 end
  // -----------------------------------------------
  // The basis set
  // -----------------------------------------------
  BAS[ATNO] = new BFNGauss[NSH];
  // Basis function   1 L = s
  InitBFNGauss(BAS[ATNO][  0]);
  BAS[ATNO][  0].l  = 0;
  BAS[ATNO][  0].ng = 12;
  BAS[ATNO][  0].a[  0] =      5899.579153300000;     BAS[ATNO][  0].d[  0] =         0.000170459472;
  BAS[ATNO][  0].a[  1] =       898.542387650000;     BAS[ATNO][  0].d[  1] =         0.001090486177;
  BAS[ATNO][  0].a[  2] =       200.372379120000;     BAS[ATNO][  0].d[  2] =         0.003018785411;
  BAS[ATNO][  0].a[  3] =        31.418053840000;     BAS[ATNO][  0].d[  3] =        -0.027778595310;
  BAS[ATNO][  0].a[  4] =        15.645987838000;     BAS[ATNO][  0].d[  4] =         0.677141825268;
  BAS[ATNO][  0].a[  5] =        11.815741857000;     BAS[ATNO][  0].d[  5] =        -0.875867485469;
  BAS[ATNO][  0].a[  6] =         6.461445828700;     BAS[ATNO][  0].d[  6] =        -0.489990541684;
  BAS[ATNO][  0].a[  7] =         2.383806757900;     BAS[ATNO][  0].d[  7] =         1.253247086316;
  BAS[ATNO][  0].a[  8] =         1.171208966200;     BAS[ATNO][  0].d[  8] =         0.241066042497;
  BAS[ATNO][  0].a[  9] =         0.321158757600;     BAS[ATNO][  0].d[  9] =         0.009214026660;
  BAS[ATNO][  0].a[ 10] =         0.123879193600;     BAS[ATNO][  0].d[ 10] =        -0.005096258567;
  BAS[ATNO][  0].a[ 11] =         0.043491550600;     BAS[ATNO][  0].d[ 11] =         0.001480994045;

FINAL SINGLE POINT ENERGY      -256.910004550190

DIPOLE MOMENT
-------------
                                X             Y             Z
Electronic contribution:      0.00000       0.00000       0.00000
Nuclear contribution   :      0.00000       0.00000       0.00000
                        -----------------------------------------
Total Dipole Moment    :      0.00000       0.00000       0.00000
                        -----------------------------------------
Magnitude (a.u.)       :      0.00000
Magnitude (Debye)      :      0.00000

Rotational constants in cm-1:     0.000000     0.000000     0.000000
Rotational constants in MHz :     0.000000     0.000000     0.000000

                             ****ORCA TERMINATED NORMALLY****
TOTAL RUN TIME: 0 days 0 hours 0 minutes 0 seconds 902 msec
