                         Program Version 4.2.0 -  RELEASE  -
|  1> # input to generate an atomic fitting density for Ir
|  2> # this file is use internally by ORCA
|  3> #
|  4> # atomic ground state (S=4): 1s2 2s2 2p6 3s2 3p6 4s2 3d10 4p6 5s2 4d10 5p6 6s2 4f14 5d7
|  5> #
|  6> ! RHF AllowRHF def2-SVP def2/J  NoMulliken NoLoewdin NoMayer NoPrintMOs
|  7>
|  8> %output print[p_atomdensfit] 2 end
|  9>
| 10> %scf
| 11>   guess hcore
| 12>   maxiter 1000
| 13>   maxdisk 500000
| 14>   SCFMode Conventional
| 15>   lshift 1.000000
| 16>   hftyp rohf
| 17>   rohf_case sahf
| 18>   rohf_numop   2
| 19>   rohf_norb[1] 5
| 20>   rohf_nel[1]  7
| 21> end
| 22>
| 23> %basis
| 24>   NewECP 77
| 25>     N_core 60
| 26>     lmax f
| 27>     s 3
| 28>       1      13.6522026000    732.2691998000  2
| 29>       2       6.8261013000     26.4847209000  2
| 30>       3       3.0340719000    -21.5310311000  2
| 31>     p 3
| 32>       1      10.2798684000    299.4894736000  2
| 33>       2       5.1399341000     26.4662335000  2
| 34>       3       3.0340719000    -21.5310311000  2
| 35>     d 3
| 36>       1       7.3498590000    124.4575945000  2
| 37>       2       3.6749295000     14.0359952000  2
| 38>       3       3.0340719000    -21.5310311000  2
| 39>     f 1
| 40>       1       3.0340719000     21.5310311000  2
| 41>   end
| 42>   NewGTO 77
| 43>     s 3
| 44>      1      30.0000000000      0.9616390282
| 45>      2      27.0000000000     -1.4589919579
| 46>      3      13.9619739110      1.4725632748
| 47>     s 1
| 48>      1       5.3956977802      1.0000000000
| 49>     s 1
| 50>      1       1.2149128721      1.0000000000
| 51>     s 1
| 52>      1       0.5588574376      1.0000000000
| 53>     s 1
| 54>      1       0.1409797431      1.0000000000
| 55>     s 1
| 56>      1       0.0500219250      1.0000000000
| 57>     p 4
| 58>      1      15.9026641430     -0.3696129600
| 59>      2      14.4158306980      0.5328002574
| 60>      3       5.7597608991     -0.6875844229
| 61>      4       1.5008913108      1.2595095548
| 62>     p 1
| 63>      1       0.7234803596      1.0000000000
| 64>     p 1
| 65>      1       0.3278598033      1.0000000000
| 66>     p 1
| 67>      1       0.0560000000      1.0000000000
| 68>     d 4
| 69>      1       8.6321692504      0.0580379198
| 70>      2       6.5898192302     -0.1340826234
| 71>      3       1.5808379663      0.4261153634
| 72>      4       0.7182783490      0.6598797561
| 73>     d 1
| 74>      1       0.3057185200      1.0000000000
| 75>     d 1
| 76>      1       0.1182707188      1.0000000000
| 77>     p 1
| 78>      1       0.0229455854      1.0000000000
| 79>   end
| 80>   NewAuxGTO 77
| 81>     S 1
| 82>      1 1310.72 1.0
| 83>     S 1
| 84>      1  655.36 1.0
| 85>     S 1
| 86>      1  327.68 1.0
| 87>     S 1
| 88>      1  163.84 1.0
| 89>     S 1
| 90>      1   81.82 1.0
| 91>     S 1
| 92>      1   40.96 1.0
| 93>     S 1
| 94>      1   20.48 1.0
| 95>     S 1
| 96>      1   10.24 1.0
| 97>     S 1
| 98>      1    5.12 1.0
| 99>     S 1
|100>      1    2.56 1.0
|101>     S 1
|102>      1    1.28 1.0
|103>     S 1
|104>      1    0.64 1.0
|105>     S 1
|106>      1    0.32 1.0
|107>     S 1
|108>      1    0.16 1.0
|109>     S 1
|110>      1    0.08 1.0
|111>     S 1
|112>      1    0.04 1.0
|113>     S 1
|114>      1    0.02 1.0
|115>     S 1
|116>      1    0.01 1.0
|117>   end
|118> end
|119>
|120> * xyz 0 4
|121> 77  0.0 0.0 0.0
|122> *
|123>
|124>
|125>                          ****END OF INPUT****

CARTESIAN COORDINATES (ANGSTROEM)
---------------------------------
  Ir     0.000000    0.000000    0.000000

 Total Charge           Charge          ....    0
 Multiplicity           Mult            ....    4
 Number of Electrons    NEL             ....   17
 Basis Dimension        Dim             ....   36

ORBITAL ENERGIES
----------------

  NO   OCC          E(Eh)            E(eV)
   0   2.0000      -5.000218      -136.0629
   1   2.0000      -3.104934       -84.4895
   2   2.0000      -3.102640       -84.4271
   3   2.0000      -3.096652       -84.2642
   4   2.0000      -1.040189       -28.3050
   5   1.4000      -1.044037       -28.4097
   6   1.4000      -0.693309       -18.8659
   7   1.4000      -0.307664        -8.3720
   8   1.4000      -0.304221        -8.2783
   9   1.4000      -0.295343        -8.0367
  10   0.0000      -0.601059       -16.3557
  11   0.0000      -0.586504       -15.9596
  12   0.0000      -0.580906       -15.8073
  13   0.0000       0.034269         0.9325
  14   0.0000       0.034681         0.9437

CleanUpVectors: The p-vectors have cracked symmetry
CleanUpVectors: The p-vectors have cracked symmetry
CleanUpVectors: The p-vectors have cracked symmetry
CleanUpVectors: The d-vectors have cracked symmetry at i=4
CleanUpVectors: The d-vectors have cracked symmetry at i=5
CleanUpVectors: The p-vectors have cracked symmetry
CleanUpVectors: The p-vectors have cracked symmetry
CleanUpVectors: The p-vectors have cracked symmetry
CleanUpVectors: The d-vectors have cracked symmetry at i=10
CleanUpVectors: The d-vectors have cracked symmetry at i=11
CleanUpVectors: The d-vectors have cracked symmetry at i=12
CleanUpVectors: The p-vectors have cracked symmetry
CleanUpVectors: The p-vectors have cracked symmetry
CleanUpVectors: The p-vectors have cracked symmetry
CleanUpVectors: The d-vectors have cracked symmetry at i=17
CleanUpVectors: The d-vectors have cracked symmetry at i=18
CleanUpVectors: The d-vectors have cracked symmetry at i=19
CleanUpVectors: The d-vectors have cracked symmetry at i=20
CleanUpVectors: The d-vectors have cracked symmetry at i=21
CleanUpVectors: The p-vectors have cracked symmetry
CleanUpVectors: The p-vectors have cracked symmetry
CleanUpVectors: The p-vectors have cracked symmetry
CleanUpVectors: The d-vectors have cracked symmetry at i=25
CleanUpVectors: The d-vectors have cracked symmetry at i=26
CleanUpVectors: The d-vectors have cracked symmetry at i=27
CleanUpVectors: The d-vectors have cracked symmetry at i=28
CleanUpVectors: The d-vectors have cracked symmetry at i=29
CleanUpVectors: The p-vectors have cracked symmetry
CleanUpVectors: The p-vectors have cracked symmetry
CleanUpVectors: The p-vectors have cracked symmetry
--------------------------
ATOM BASIS FOR ELEMENT Ir
--------------------------
 NewGTO Ir
 S 8
    1         30.000000000000        -0.315594614623
    2         27.000000000000         0.478817925633
    3         13.961973911000        -0.483271815712
    4          5.395697780200         0.922940085707
    5          1.214912872100        -1.026366277032
    6          0.558857437600        -0.342630116896
    7          0.140979743100         0.001943239923
    8          0.050021925000        -0.002128623410
 P 22
    1         15.902664143000        -0.126659232332
    2         14.415830698000         0.182580371610
    3          5.759760899100        -0.235621919665
    4          1.500891310800         0.431609631129
    5         15.902664143000         0.100395638372
    6         14.415830698000        -0.144721175271
    7          5.759760899100         0.186764222423
    8          1.500891310800        -0.342112640721
    9         15.902664143000         0.049302567231
   10         14.415830698000        -0.071070074250
   11          5.759760899100         0.091716689904
   12          1.500891310800        -0.168005619996
   13          0.723480359600         0.400977899441
   14          0.723480359600        -0.317832592590
   15          0.723480359600        -0.156082106936
   16          0.327859803300         0.037793930474
   17          0.327859803300        -0.029957119641
   18          0.327859803300        -0.014711425009
   19          0.056000000000         0.006071901699
   20          0.056000000000        -0.004812854428
   21          0.056000000000        -0.002363509838
   22          0.022945585400        -0.002771840878
 D 22
    1         30.000000000000         0.000011099448
    2         27.000000000000        -0.000018711115
    3         13.961973911000         0.000036520581
    4          5.395697780200        -0.000191080327
    5          1.214912872100         0.001782113291
    6          0.558857437600        -0.002709468629
    7          0.140979743100         0.003231803215
    8          0.050021925000         0.009769414747
    9          8.632169250400        -0.013941293400
   10          6.589819230200         0.032207997790
   11          1.580837966300        -0.102357205838
   12          0.718278349000        -0.158509769477
   13          8.632169250400         0.015581548403
   14          6.589819230200        -0.035997411585
   15          1.580837966300         0.114399985098
   16          0.718278349000         0.177159146908
   17          8.632169250400        -0.020512376628
   18          6.589819230200         0.047388901599
   19          1.580837966300        -0.150602207160
   20          0.718278349000        -0.233221695965
   21          8.632169250400         0.008644568739
   22          6.589819230200        -0.019971192261
 S 8
    1         30.000000000000        -2.042462548256
    2         27.000000000000         3.098809787073
    3         13.961973911000        -3.127634435081
    4          5.395697780200         3.463376784344
    5          1.214912872100        -2.080400308119
    6          0.558857437600         1.389858096193
    7          0.140979743100        -0.448444202685
    8          0.050021925000         0.163382146531
 S 8
    1         30.000000000000        -1.905918139422
    2         27.000000000000         2.891645572079
    3         13.961973911000        -2.918543210691
    4          5.395697780200         1.399613609691
    5          1.214912872100        -0.664219046487
    6          0.558857437600         0.433817726840
    7          0.140979743100        -0.139260628015
    8          0.050021925000         0.050831791534
 P 22
    1         15.902664143000        -0.045098454641
    2         14.415830698000         0.065009809832
    3          5.759760899100        -0.083895853944
    4          1.500891310800         0.153679499028
    5         15.902664143000         0.035747004463
    6         14.415830698000        -0.051529614057
    7          5.759760899100         0.066499517317
    8          1.500891310800        -0.121813081654
    9         15.902664143000         0.017554737632
   10         14.415830698000        -0.025305305119
   11          5.759760899100         0.032656766537
   12          1.500891310800        -0.059820304405
   13          0.723480359600         0.379317415867
   14          0.723480359600        -0.300663547474
   15          0.723480359600        -0.147650684879
   16          0.327859803300        -0.508725257771
   17          0.327859803300         0.403237853822
   18          0.327859803300         0.198023158398
   19          0.056000000000        -0.668887307380
   20          0.056000000000         0.530189288140
   21          0.056000000000         0.260366819213
   22          6.589819230200        -0.000000008316
 D 22
    1         15.902664143000        -0.000000000685
    2         14.415830698000         0.000000001037
    3          5.759760899100        -0.000000002117
    4         15.902664143000         0.000000001425
    5         14.415830698000        -0.000000002158
    6          5.759760899100         0.000000004406
    7          8.632169250400        -0.031966488722
    8          6.589819230200         0.073850866528
    9          1.580837966300        -0.234698486872
   10          0.718278349000        -0.363452702194
   11          8.632169250400         0.003182155169
   12          6.589819230200        -0.007351602446
   13          1.580837966300         0.023363435683
   14          0.718278349000         0.036180479664
   15          8.632169250400        -0.016920206046
   16          6.589819230200         0.039090057380
   17          1.580837966300        -0.124228431569
   18          0.718278349000        -0.192379421550
   19          8.632169250400        -0.000309447606
   20          6.589819230200         0.000714904099
   21          1.580837966300        -0.002271969419
   22          0.718278349000        -0.003518358536
 P 22
    1         15.902664143000        -0.005109307643
    2         14.415830698000         0.007365110864
    3          5.759760899100        -0.009504754235
    4          1.500891310800         0.017410703873
    5         15.902664143000        -0.010911758260
    6         14.415830698000         0.015729393281
    7          5.759760899100        -0.020298950031
    8          1.500891310800         0.037183392563
    9         15.902664143000         0.009093886540
   10         14.415830698000        -0.013108915578
   11          5.759760899100         0.016917195567
   12          1.500891310800        -0.030988732070
   13          0.723480359600         0.037963189320
   14          0.723480359600         0.081076571154
   15          0.723480359600        -0.067569416544
   16          0.327859803300        -0.040874634963
   17          0.327859803300        -0.087294437306
   18          0.327859803300         0.072751401698
   19          0.056000000000        -0.304136290361
   20          0.056000000000        -0.649532561091
   21          0.056000000000         0.541322055863
   22          0.022945585400         0.516562530692
 D 22
    1         30.000000000000         0.000010818546
    2         27.000000000000        -0.000018237579
    3         13.961973911000         0.000035596328
    4          5.395697780200        -0.000189672406
    5          1.214912872100         0.002059348253
    6          0.558857437600        -0.003461232753
    7          0.140979743100         0.008915948407
    8          0.050021925000        -0.042468218612
    9          8.632169250400        -0.004518409841
   10          6.589819230200         0.010438696756
   11          1.580837966300        -0.033174239501
   12          0.718278349000        -0.051373432997
   13          8.632169250400         0.005074759853
   14          6.589819230200        -0.011724009346
   15          1.580837966300         0.037258970449
   16          0.718278349000         0.057699023420
   17          8.632169250400        -0.006591840994
   18          6.589819230200         0.015228859624
   19          1.580837966300        -0.048397405184
   20          0.718278349000        -0.074947938215
   21          8.632169250400         0.002773402048
   22          6.589819230200        -0.006407276891
 P 22
    1         15.902664143000        -0.047528173812
    2         14.415830698000         0.068512270892
    3          5.759760899100        -0.088415817351
    4          1.500891310800         0.161959118095
    5         15.902664143000        -0.029478109482
    6         14.415830698000         0.042492948082
    7          5.759760899100        -0.054837603358
    8          1.500891310800         0.100450916413
    9         15.902664143000        -0.062074016853
   10         14.415830698000         0.089480228607
   11          5.759760899100        -0.115475190737
   12          1.500891310800         0.211526179523
   13          0.723480359600         0.546038241398
   14          0.723480359600         0.338665969473
   15          0.723480359600         0.713151469546
   16          0.327859803300        -1.025701189697
   17          0.327859803300        -0.636164395572
   18          0.327859803300        -1.339613703382
   19          0.056000000000         0.826836829021
   20          0.056000000000         0.512823965552
   21          0.056000000000         1.079887551799
   22          0.022945585400        -0.429909114029
 D 22
    1         30.000000000000         0.000011350310
    2         27.000000000000        -0.000019134011
    3         13.961973911000         0.000037345994
    4          5.395697780200        -0.000199407255
    5          1.214912872100         0.001452760489
    6          0.558857437600         0.000798345004
    7          0.140979743100        -0.021456567857
    8          0.050021925000         0.027681953737
    9          8.632169250400        -0.018628408945
   10          6.589819230200         0.043036448406
   11          1.580837966300        -0.136770085392
   12          0.718278349000        -0.211801353207
   13          8.632169250400         0.020911912667
   14          6.589819230200        -0.048311933307
   15          1.580837966300         0.153535607342
   16          0.718278349000         0.237764342307
   17          8.632169250400        -0.027199922225
   18          6.589819230200         0.062838863640
   19          1.580837966300        -0.199702277123
   20          0.718278349000        -0.309257776742
   21          8.632169250400         0.011445810270
   22          6.589819230200        -0.026442785565
 P 22
    1         15.902664143000        -0.547387466550
    2         14.415830698000         0.789063735956
    3          5.759760899100        -1.018295179071
    4          1.500891310800         1.865301866842
    5         15.902664143000        -0.339502791069
    6         14.415830698000         0.489396190192
    7          5.759760899100        -0.631571010579
    8          1.500891310800         1.156904804510
    9         15.902664143000        -0.714913620557
   10         14.415830698000         1.030554126271
   11          5.759760899100        -1.329941107081
   12          1.500891310800         2.436171437137
   13          0.723480359600        -2.203822614469
   14          0.723480359600        -1.366863463919
   15          0.723480359600        -2.878295358689
   16          0.327859803300         1.033434747246
   17          0.327859803300         0.640960932645
   18          0.327859803300         1.349714090861
   19          0.056000000000        -0.256489737571
   20          0.056000000000        -0.159081066168
   21          0.056000000000        -0.334987587637
   22          0.022945585400         0.127406948161
 end
  // -----------------------------------------------
  // The basis set
  // -----------------------------------------------
  BAS[ATNO] = new BFNGauss[NSH];
  // Basis function   1 L = s
  InitBFNGauss(BAS[ATNO][  0]);
  BAS[ATNO][  0].l  = 0;
  BAS[ATNO][  0].ng = 8;
  BAS[ATNO][  0].a[  0] =        30.000000000000;     BAS[ATNO][  0].d[  0] =         0.315594614623;
  BAS[ATNO][  0].a[  1] =        27.000000000000;     BAS[ATNO][  0].d[  1] =        -0.478817925633;
  BAS[ATNO][  0].a[  2] =        13.961973911000;     BAS[ATNO][  0].d[  2] =         0.483271815712;
  BAS[ATNO][  0].a[  3] =         5.395697780200;     BAS[ATNO][  0].d[  3] =        -0.922940085707;
  BAS[ATNO][  0].a[  4] =         1.214912872100;     BAS[ATNO][  0].d[  4] =         1.026366277032;
  BAS[ATNO][  0].a[  5] =         0.558857437600;     BAS[ATNO][  0].d[  5] =         0.342630116896;
  BAS[ATNO][  0].a[  6] =         0.140979743100;     BAS[ATNO][  0].d[  6] =        -0.001943239923;
  BAS[ATNO][  0].a[  7] =         0.050021925000;     BAS[ATNO][  0].d[  7] =         0.002128623410;

FINAL SINGLE POINT ENERGY      -101.780689148135

DIPOLE MOMENT
-------------
                                X             Y             Z
Electronic contribution:      0.00000       0.00000      -0.00000
Nuclear contribution   :      0.00000       0.00000       0.00000
                        -----------------------------------------
Total Dipole Moment    :      0.00000       0.00000      -0.00000
                        -----------------------------------------
Magnitude (a.u.)       :      0.00000
Magnitude (Debye)      :      0.00000

Rotational constants in cm-1:     0.000000     0.000000     0.000000
Rotational constants in MHz :     0.000000     0.000000     0.000000

                             ****ORCA TERMINATED NORMALLY****
TOTAL RUN TIME: 0 days 0 hours 0 minutes 1 seconds 37 msec
