                         Program Version 4.2.0 -  RELEASE  -
|  1> #
|  2> # MOR33_pr28 wB97M-V/Def2-TZVPPD
|  3> #
|  4> ! wb97m-v def2-tzvppd def2/jk grid4 nofinalgrid
|  5>
|  6> *xyz 0 1
|  7> C        1.962238    1.228976    0.498763
|  8> C        1.599117    0.285883    1.541183
|  9> C        2.190996   -0.926462   -0.368778
| 10> C        2.300550    0.493131   -0.671789
| 11> C        2.081248    2.713946    0.664976
| 12> H        1.434728    3.080045    1.466376
| 13> H        1.821015    3.245065   -0.254703
| 14> H        3.112287    2.986784    0.927647
| 15> C        2.741378    1.051608   -1.988266
| 16> H        2.535990    2.123448   -2.051886
| 17> H        2.213045    0.558789   -2.809947
| 18> H        3.820515    0.902993   -2.128525
| 19> C        2.527241   -2.035347   -1.317221
| 20> H        3.613873   -2.134320   -1.446849
| 21> H        2.080344   -1.846887   -2.298459
| 22> H        2.144835   -2.993343   -0.953257
| 23> C        1.716574   -2.315630    1.788054
| 24> H        2.711935   -2.577282    2.171299
| 25> H        1.368788   -3.152284    1.175589
| 26> H        1.050088   -2.217418    2.648594
| 27> C        1.340513    0.619038    2.979845
| 28> H        2.276059    0.647386    3.557074
| 29> H        0.683714   -0.121696    3.445256
| 30> H        0.861589    1.596880    3.080055
| 31> Ru       0.207249   -0.005545   -0.119227
| 32> Cl      -0.429544   -0.245973   -2.480800
| 33> P       -1.456891    1.528216    0.068580
| 34> C       -1.650760    2.737817   -1.304822
| 35> H       -1.703179    2.179367   -2.242601
| 36> H       -0.763254    3.377318   -1.338338
| 37> H       -2.542801    3.360896   -1.175052
| 38> C       -1.549065    2.651656    1.528190
| 39> H       -2.472379    3.241595    1.506577
| 40> H       -0.697323    3.336564    1.527717
| 41> H       -1.520496    2.059136    2.446687
| 42> C       -3.144680    0.720288    0.161598
| 43> H       -3.432756    0.709722    1.219807
| 44> H       -3.887248    1.321720   -0.374189
| 45> C        1.787636   -1.042026    1.001372
| 46> P       -1.484414   -1.469966    0.216463
| 47> H       -2.382409   -3.625079   -0.568542
| 48> H       -0.624918   -3.689033   -0.270965
| 49> H       -1.236340   -2.863867   -1.723131
| 50> C       -3.065590   -0.710530   -0.380679
| 51> C       -1.439182   -3.076884   -0.670420
| 52> C       -1.931261   -2.000447    1.926464
| 53> H       -2.988264   -0.701756   -1.472521
| 54> H       -3.935017   -1.311110   -0.088429
| 55> H       -1.104361   -2.563780    2.366010
| 56> H       -2.827619   -2.630913    1.925421
| 57> H       -2.109292   -1.117280    2.546403
| 58> *
| 59>
| 60> %maxcore 5000
| 61>
| 62> %pal
| 63> nprocs = 24
| 64> end
| 65>
| 66>
| 67>                          ****END OF INPUT****

CARTESIAN COORDINATES (ANGSTROEM)
---------------------------------
  C      1.962238    1.228976    0.498763
  C      1.599117    0.285883    1.541183
  C      2.190996   -0.926462   -0.368778
  C      2.300550    0.493131   -0.671789
  C      2.081248    2.713946    0.664976
  H      1.434728    3.080045    1.466376
  H      1.821015    3.245065   -0.254703
  H      3.112287    2.986784    0.927647
  C      2.741378    1.051608   -1.988266
  H      2.535990    2.123448   -2.051886
  H      2.213045    0.558789   -2.809947
  H      3.820515    0.902993   -2.128525
  C      2.527241   -2.035347   -1.317221
  H      3.613873   -2.134320   -1.446849
  H      2.080344   -1.846887   -2.298459
  H      2.144835   -2.993343   -0.953257
  C      1.716574   -2.315630    1.788054
  H      2.711935   -2.577282    2.171299
  H      1.368788   -3.152284    1.175589
  H      1.050088   -2.217418    2.648594
  C      1.340513    0.619038    2.979845
  H      2.276059    0.647386    3.557074
  H      0.683714   -0.121696    3.445256
  H      0.861589    1.596880    3.080055
  Ru     0.207249   -0.005545   -0.119227
  Cl    -0.429544   -0.245973   -2.480800
  P     -1.456891    1.528216    0.068580
  C     -1.650760    2.737817   -1.304822
  H     -1.703179    2.179367   -2.242601
  H     -0.763254    3.377318   -1.338338
  H     -2.542801    3.360896   -1.175052
  C     -1.549065    2.651656    1.528190
  H     -2.472379    3.241595    1.506577
  H     -0.697323    3.336564    1.527717
  H     -1.520496    2.059136    2.446687
  C     -3.144680    0.720288    0.161598
  H     -3.432756    0.709722    1.219807
  H     -3.887248    1.321720   -0.374189
  C      1.787636   -1.042026    1.001372
  P     -1.484414   -1.469966    0.216463
  H     -2.382409   -3.625079   -0.568542
  H     -0.624918   -3.689033   -0.270965
  H     -1.236340   -2.863867   -1.723131
  C     -3.065590   -0.710530   -0.380679
  C     -1.439182   -3.076884   -0.670420
  C     -1.931261   -2.000447    1.926464
  H     -2.988264   -0.701756   -1.472521
  H     -3.935017   -1.311110   -0.088429
  H     -1.104361   -2.563780    2.366010
  H     -2.827619   -2.630913    1.925421
  H     -2.109292   -1.117280    2.546403

 Total Charge           Charge          ....    0
 Multiplicity           Mult            ....    1
 Number of Electrons    NEL             ....  190
 Basis Dimension        Dim             .... 1322

ORBITAL ENERGIES
----------------

  NO   OCC          E(Eh)            E(eV)
   0   2.0000    -101.772326     -2769.3658
   1   2.0000     -77.388900     -2105.8590
   2   2.0000     -77.388181     -2105.8395
   3   2.0000     -10.363294      -281.9996
   4   2.0000     -10.359841      -281.9056
   5   2.0000     -10.354795      -281.7683
   6   2.0000     -10.353903      -281.7440
   7   2.0000     -10.352850      -281.7154
   8   2.0000     -10.348878      -281.6073
   9   2.0000     -10.345673      -281.5201
  10   2.0000     -10.345569      -281.5173
  11   2.0000     -10.345368      -281.5118
  12   2.0000     -10.345324      -281.5106
  13   2.0000     -10.343418      -281.4587
  14   2.0000     -10.342348      -281.4296
  15   2.0000     -10.335278      -281.2372
  16   2.0000     -10.331852      -281.1440
  17   2.0000     -10.328486      -281.0524
  18   2.0000     -10.325936      -280.9830
  19   2.0000      -9.545031      -259.7335
  20   2.0000      -7.246563      -197.1890
  21   2.0000      -7.243102      -197.0948
  22   2.0000      -7.242963      -197.0910
  23   2.0000      -6.734138      -183.2452
  24   2.0000      -6.733725      -183.2340
  25   2.0000      -4.847052      -131.8950
  26   2.0000      -4.846593      -131.8825
  27   2.0000      -4.846549      -131.8813
  28   2.0000      -4.846195      -131.8717
  29   2.0000      -4.843529      -131.7991
  30   2.0000      -4.843143      -131.7886
  31   2.0000      -3.117577       -84.8336
  32   2.0000      -1.972682       -53.6794
  33   2.0000      -1.948002       -53.0078
  34   2.0000      -1.946372       -52.9635
  35   2.0000      -1.009014       -27.4567
  36   2.0000      -0.923483       -25.1293
  37   2.0000      -0.901240       -24.5240
  38   2.0000      -0.894973       -24.3535
  39   2.0000      -0.880466       -23.9587
  40   2.0000      -0.850009       -23.1299
  41   2.0000      -0.840505       -22.8713
  42   2.0000      -0.833910       -22.6918
  43   2.0000      -0.830475       -22.5984
  44   2.0000      -0.827711       -22.5232
  45   2.0000      -0.814124       -22.1534
  46   2.0000      -0.811197       -22.0738
  47   2.0000      -0.748910       -20.3789
  48   2.0000      -0.738597       -20.0983
  49   2.0000      -0.731169       -19.8961
  50   2.0000      -0.677926       -18.4473
  51   2.0000      -0.637546       -17.3485
  52   2.0000      -0.624332       -16.9890
  53   2.0000      -0.623383       -16.9631
  54   2.0000      -0.576118       -15.6770
  55   2.0000      -0.571523       -15.5519
  56   2.0000      -0.565658       -15.3923
  57   2.0000      -0.557692       -15.1756
  58   2.0000      -0.543877       -14.7997
  59   2.0000      -0.538352       -14.6493
  60   2.0000      -0.536618       -14.6021
  61   2.0000      -0.532692       -14.4953
  62   2.0000      -0.530538       -14.4367
  63   2.0000      -0.526217       -14.3191
  64   2.0000      -0.520893       -14.1742
  65   2.0000      -0.516415       -14.0524
  66   2.0000      -0.514401       -13.9976
  67   2.0000      -0.508513       -13.8373
  68   2.0000      -0.507759       -13.8168
  69   2.0000      -0.502969       -13.6865
  70   2.0000      -0.499415       -13.5898
  71   2.0000      -0.495108       -13.4726
  72   2.0000      -0.492604       -13.4044
  73   2.0000      -0.490042       -13.3347
  74   2.0000      -0.477879       -13.0038
  75   2.0000      -0.472800       -12.8655
  76   2.0000      -0.471023       -12.8172
  77   2.0000      -0.469551       -12.7771
  78   2.0000      -0.446634       -12.1535
  79   2.0000      -0.436409       -11.8753
  80   2.0000      -0.433230       -11.7888
  81   2.0000      -0.428623       -11.6634
  82   2.0000      -0.426603       -11.6085
  83   2.0000      -0.420053       -11.4302
  84   2.0000      -0.408153       -11.1064
  85   2.0000      -0.387619       -10.5477
  86   2.0000      -0.386991       -10.5306
  87   2.0000      -0.380455       -10.3527
  88   2.0000      -0.358813        -9.7638
  89   2.0000      -0.354602        -9.6492
  90   2.0000      -0.328420        -8.9368
  91   2.0000      -0.323207        -8.7949
  92   2.0000      -0.298709        -8.1283
  93   2.0000      -0.279639        -7.6094
  94   2.0000      -0.264814        -7.2060
  95   0.0000       0.025252         0.6871
  96   0.0000       0.033940         0.9235
  97   0.0000       0.039425         1.0728
  98   0.0000       0.041855         1.1389
  99   0.0000       0.053523         1.4564

MULLIKEN ATOMIC CHARGES
-----------------------
   0 C :    0.475361
   1 C :    0.906534
   2 C :    0.675299
   3 C :    0.890602
   4 C :   -1.384906
   5 H :    0.258285
   6 H :    0.330098
   7 H :    0.371591
   8 C :   -1.575986
   9 H :    0.326099
  10 H :    0.277829
  11 H :    0.354596
  12 C :   -1.713279
  13 H :    0.360835
  14 H :    0.299304
  15 H :    0.324371
  16 C :   -1.345202
  17 H :    0.392833
  18 H :    0.319269
  19 H :    0.242739
  20 C :   -1.770387
  21 H :    0.330390
  22 H :    0.374206
  23 H :    0.347841
  24 Ru:   -1.703856
  25 Cl:   -0.436295
  26 P :    1.800049
  27 C :   -1.545001
  28 H :    0.323901
  29 H :    0.336368
  30 H :    0.444336
  31 C :   -1.458394
  32 H :    0.448639
  33 H :    0.290113
  34 H :    0.294361
  35 C :   -1.169911
  36 H :    0.410901
  37 H :    0.528151
  38 C :    0.497591
  39 P :    1.499903
  40 H :    0.445360
  41 H :    0.327468
  42 H :    0.287753
  43 C :   -0.788512
  44 C :   -1.478969
  45 C :   -1.440660
  46 H :    0.419222
  47 H :    0.517723
  48 H :    0.323817
  49 H :    0.442745
  50 H :    0.314874
Sum of atomic charges:   -0.0000000

LOEWDIN ATOMIC CHARGES
----------------------
   0 C :   -0.246773
   1 C :   -0.265263
   2 C :   -0.265479
   3 C :   -0.262787
   4 C :    0.166876
   5 H :   -0.035821
   6 H :   -0.015414
   7 H :    0.006515
   8 C :    0.156099
   9 H :   -0.015240
  10 H :   -0.048945
  11 H :    0.002815
  12 C :    0.161569
  13 H :    0.000473
  14 H :   -0.030193
  15 H :   -0.018449
  16 C :    0.164218
  17 H :    0.007659
  18 H :   -0.021811
  19 H :   -0.030454
  20 C :    0.163040
  21 H :    0.003433
  22 H :   -0.016776
  23 H :   -0.027955
  24 Ru:    0.458245
  25 Cl:    0.004839
  26 P :    0.823559
  27 C :   -0.029590
  28 H :   -0.097241
  29 H :   -0.056643
  30 H :   -0.050642
  31 C :   -0.013546
  32 H :   -0.045537
  33 H :   -0.069781
  34 H :   -0.058435
  35 C :   -0.200660
  36 H :   -0.029922
  37 H :   -0.018850
  38 C :   -0.262053
  39 P :    0.796508
  40 H :   -0.047048
  41 H :   -0.061894
  42 H :   -0.083559
  43 C :   -0.230118
  44 C :   -0.014109
  45 C :    0.002356
  46 H :   -0.054560
  47 H :   -0.017366
  48 H :   -0.071588
  49 H :   -0.046797
  50 H :   -0.056905

  Mayer bond orders larger than 0.100000
B(  0-C ,  1-C ) :  -0.2124 B(  0-C ,  2-C ) :  -0.2884 B(  0-C ,  3-C ) :   0.3992
B(  0-C ,  4-C ) :   0.3680 B(  0-C ,  5-H ) :  -0.1882 B(  0-C ,  6-H ) :  -0.2075
B(  0-C , 24-Ru) :   0.8128 B(  0-C , 25-Cl) :   0.1042 B(  1-C , 22-H ) :  -0.2339
B(  1-C , 23-H ) :  -0.2281 B(  1-C , 24-Ru) :   0.1421 B(  1-C , 25-Cl) :  -0.1290
B(  1-C , 26-P ) :   0.2041 B(  2-C ,  3-C ) :   0.4627 B(  2-C , 12-C ) :   0.3413
B(  2-C , 14-H ) :  -0.1536 B(  2-C , 15-H ) :  -0.1944 B(  2-C , 24-Ru) :   0.2108
B(  2-C , 25-Cl) :  -0.1187 B(  2-C , 26-P ) :  -0.1077 B(  2-C , 38-C ) :   0.2788
B(  3-C ,  8-C ) :   0.3755 B(  3-C ,  9-H ) :  -0.1717 B(  3-C , 10-H ) :  -0.1345
B(  3-C , 24-Ru) :   0.1554 B(  3-C , 38-C ) :  -0.2863 B(  4-C ,  5-H ) :   1.0089
B(  4-C ,  6-H ) :   1.0292 B(  4-C ,  7-H ) :   0.8784 B(  8-C ,  9-H ) :   0.9555
B(  8-C , 10-H ) :   0.9793 B(  8-C , 11-H ) :   0.9315 B(  8-C , 24-Ru) :   0.2052
B( 12-C , 13-H ) :   0.9162 B( 12-C , 14-H ) :   0.9508 B( 12-C , 15-H ) :   0.9777
B( 12-C , 24-Ru) :   0.2549 B( 16-C , 17-H ) :   0.8579 B( 16-C , 18-H ) :   1.0382
B( 16-C , 19-H ) :   1.1148 B( 16-C , 38-C ) :   0.3134 B( 16-C , 39-P ) :  -0.1110
B( 18-H , 19-H ) :   0.1064 B( 18-H , 38-C ) :  -0.2120 B( 19-H , 38-C ) :  -0.2249
B( 20-C , 21-H ) :   0.9429 B( 20-C , 22-H ) :   0.9876 B( 20-C , 23-H ) :   0.9722
B( 20-C , 24-Ru) :   0.1297 B( 24-Ru, 25-Cl) :   0.8933 B( 24-Ru, 26-P ) :   0.9351
B( 24-Ru, 27-C ) :   0.2646 B( 24-Ru, 31-C ) :   0.1476 B( 24-Ru, 38-C ) :   0.9956
B( 24-Ru, 39-P ) :   1.0203 B( 24-Ru, 44-C ) :   0.1667 B( 24-Ru, 45-C ) :   0.1794
B( 25-Cl, 26-P ) :  -0.1148 B( 25-Cl, 39-P ) :   0.2361 B( 26-P , 27-C ) :   0.5568
B( 26-P , 28-H ) :  -0.1020 B( 26-P , 31-C ) :   0.4326 B( 26-P , 34-H ) :  -0.1372
B( 26-P , 35-C ) :   0.4656 B( 26-P , 39-P ) :  -0.2245 B( 27-C , 28-H ) :   0.9804
B( 27-C , 29-H ) :   0.9860 B( 27-C , 30-H ) :   0.8208 B( 27-C , 31-C ) :   0.1070
B( 27-C , 35-C ) :   0.1384 B( 31-C , 32-H ) :   0.8481 B( 31-C , 33-H ) :   0.9610
B( 31-C , 34-H ) :   1.0295 B( 31-C , 35-C ) :   0.1195 B( 35-C , 36-H ) :   0.9295
B( 35-C , 37-H ) :   0.7727 B( 35-C , 39-P ) :   0.3151 B( 35-C , 43-C ) :   0.6716
B( 36-H , 37-H ) :   0.1379 B( 38-C , 39-P ) :   0.1346 B( 39-P , 43-C ) :   0.3233
B( 39-P , 44-C ) :   0.5382 B( 39-P , 45-C ) :   0.5081 B( 39-P , 50-H ) :  -0.1122
B( 40-H , 44-C ) :   0.8317 B( 41-H , 44-C ) :   0.9946 B( 42-H , 44-C ) :   1.0055
B( 43-C , 45-C ) :   0.1110 B( 43-C , 46-H ) :   1.0137 B( 43-C , 47-H ) :   0.8084
B( 45-C , 48-H ) :   0.9528 B( 45-C , 49-H ) :   0.8323 B( 45-C , 50-H ) :   1.0112

FINAL SINGLE POINT ENERGY     -1866.198192053235

DIPOLE MOMENT
-------------
                                X             Y             Z
Electronic contribution:     12.02059      -1.43289     -17.67442
Nuclear contribution   :    -12.48154       1.60484      19.54441
                        -----------------------------------------
Total Dipole Moment    :     -0.46095       0.17196       1.87000
                        -----------------------------------------
Magnitude (a.u.)       :      1.93363
Magnitude (Debye)      :      4.91490

Rotational constants in cm-1:     0.010225     0.008868     0.007900
Rotational constants in MHz :   306.523373   265.843264   236.824033

                             ****ORCA TERMINATED NORMALLY****
TOTAL RUN TIME: 0 days 1 hours 3 minutes 56 seconds 533 msec
