                         Program Version 4.2.0 -  RELEASE  -
|  1> #
|  2> # MOR36_pr37 wB97M-V/Def2-TZVPPD
|  3> #
|  4> ! wb97m-v def2-tzvppd def2/jk grid4 nofinalgrid
|  5>
|  6> *xyz 0 1
|  7> Mo       0.000106   -0.000070   -0.471377
|  8> C        0.514398   -1.514915   -1.646050
|  9> C        1.055079    1.202350   -1.646249
| 10> C       -1.568474    0.311983   -1.646660
| 11> O       -2.484520    0.493946   -2.346732
| 12> O        0.814970   -2.399453   -2.345765
| 13> O        1.670957    1.904692   -2.346079
| 14> N       -1.133555   -1.291008    0.811792
| 15> N       -0.551576    1.627166    0.811584
| 16> N        1.684684   -0.335905    0.812231
| 17> C        2.623715   -0.523292    1.470917
| 18> C       -0.858944    2.534303    1.469905
| 19> C       -1.765652   -2.010491    1.470244
| 20> C       -2.579903   -2.936733    2.238371
| 21> H       -3.631237   -2.631169    2.207389
| 22> H       -2.252645   -2.962558    3.282907
| 23> H       -2.496617   -3.945451    1.819577
| 24> C       -1.254401    3.702555    2.237857
| 25> H       -0.464690    4.460832    2.206160
| 26> H       -1.439592    3.432273    3.282594
| 27> H       -2.170183    4.133961    1.819442
| 28> C        3.832875   -0.764956    2.239344
| 29> H        4.094105   -1.828181    2.208653
| 30> H        3.691346   -0.468421    3.283785
| 31> H        4.664793   -0.188419    1.820591
| 32> *
| 33>
| 34> %maxcore 5000
| 35>
| 36> %pal
| 37> nprocs = 24
| 38> end
| 39>
| 40>
| 41>                          ****END OF INPUT****

CARTESIAN COORDINATES (ANGSTROEM)
---------------------------------
  Mo     0.000106   -0.000070   -0.471377
  C      0.514398   -1.514915   -1.646050
  C      1.055079    1.202350   -1.646249
  C     -1.568474    0.311983   -1.646660
  O     -2.484520    0.493946   -2.346732
  O      0.814970   -2.399453   -2.345765
  O      1.670957    1.904692   -2.346079
  N     -1.133555   -1.291008    0.811792
  N     -0.551576    1.627166    0.811584
  N      1.684684   -0.335905    0.812231
  C      2.623715   -0.523292    1.470917
  C     -0.858944    2.534303    1.469905
  C     -1.765652   -2.010491    1.470244
  C     -2.579903   -2.936733    2.238371
  H     -3.631237   -2.631169    2.207389
  H     -2.252645   -2.962558    3.282907
  H     -2.496617   -3.945451    1.819577
  C     -1.254401    3.702555    2.237857
  H     -0.464690    4.460832    2.206160
  H     -1.439592    3.432273    3.282594
  H     -2.170183    4.133961    1.819442
  C      3.832875   -0.764956    2.239344
  H      4.094105   -1.828181    2.208653
  H      3.691346   -0.468421    3.283785
  H      4.664793   -0.188419    1.820591

 Total Charge           Charge          ....    0
 Multiplicity           Mult            ....    1
 Number of Electrons    NEL             ....  122
 Basis Dimension        Dim             ....  773

ORBITAL ENERGIES
----------------

  NO   OCC          E(Eh)            E(eV)
   0   2.0000     -19.335187      -526.1372
   1   2.0000     -19.335187      -526.1372
   2   2.0000     -19.335176      -526.1369
   3   2.0000     -14.540741      -395.6737
   4   2.0000     -14.540740      -395.6736
   5   2.0000     -14.540736      -395.6735
   6   2.0000     -10.410918      -283.2955
   7   2.0000     -10.410910      -283.2953
   8   2.0000     -10.410909      -283.2952
   9   2.0000     -10.409376      -283.2535
  10   2.0000     -10.409372      -283.2534
  11   2.0000     -10.409371      -283.2534
  12   2.0000     -10.392169      -282.7853
  13   2.0000     -10.392162      -282.7851
  14   2.0000     -10.392155      -282.7849
  15   2.0000      -2.609248       -71.0012
  16   2.0000      -1.610651       -43.8280
  17   2.0000      -1.606723       -43.7211
  18   2.0000      -1.606719       -43.7210
  19   2.0000      -1.182050       -32.1652
  20   2.0000      -1.181378       -32.1469
  21   2.0000      -1.181372       -32.1468
  22   2.0000      -1.060402       -28.8550
  23   2.0000      -1.057825       -28.7849
  24   2.0000      -1.057818       -28.7847
  25   2.0000      -0.913963       -24.8702
  26   2.0000      -0.913471       -24.8568
  27   2.0000      -0.913467       -24.8567
  28   2.0000      -0.654950       -17.8221
  29   2.0000      -0.644658       -17.5420
  30   2.0000      -0.644654       -17.5419
  31   2.0000      -0.625899       -17.0316
  32   2.0000      -0.611198       -16.6315
  33   2.0000      -0.611192       -16.6314
  34   2.0000      -0.586187       -15.9509
  35   2.0000      -0.585385       -15.9291
  36   2.0000      -0.585382       -15.9291
  37   2.0000      -0.584274       -15.8989
  38   2.0000      -0.584272       -15.8989
  39   2.0000      -0.583681       -15.8828
  40   2.0000      -0.571445       -15.5498
  41   2.0000      -0.553702       -15.0670
  42   2.0000      -0.553695       -15.0668
  43   2.0000      -0.506846       -13.7920
  44   2.0000      -0.503739       -13.7074
  45   2.0000      -0.503736       -13.7074
  46   2.0000      -0.491106       -13.3637
  47   2.0000      -0.491102       -13.3636
  48   2.0000      -0.486476       -13.2377
  49   2.0000      -0.483358       -13.1528
  50   2.0000      -0.471302       -12.8248
  51   2.0000      -0.471298       -12.8247
  52   2.0000      -0.458567       -12.4782
  53   2.0000      -0.458565       -12.4782
  54   2.0000      -0.453180       -12.3317
  55   2.0000      -0.451276       -12.2798
  56   2.0000      -0.443221       -12.0606
  57   2.0000      -0.443216       -12.0605
  58   2.0000      -0.234113        -6.3705
  59   2.0000      -0.230643        -6.2761
  60   2.0000      -0.230638        -6.2760
  61   0.0000       0.007934         0.2159
  62   0.0000       0.023215         0.6317
  63   0.0000       0.023230         0.6321
  64   0.0000       0.053933         1.4676
  65   0.0000       0.059840         1.6283

MULLIKEN ATOMIC CHARGES
-----------------------
   0 Mo:   -0.667904
   1 C :    0.489771
   2 C :    0.491161
   3 C :    0.494156
   4 O :   -0.438182
   5 O :   -0.437995
   6 O :   -0.438029
   7 N :   -0.106706
   8 N :   -0.107823
   9 N :   -0.107954
  10 C :    0.387424
  11 C :    0.387726
  12 C :    0.387058
  13 C :   -0.787986
  14 H :    0.224656
  15 H :    0.225855
  16 H :    0.226448
  17 C :   -0.788865
  18 H :    0.225195
  19 H :    0.226093
  20 H :    0.226006
  21 C :   -0.785854
  22 H :    0.224477
  23 H :    0.225417
  24 H :    0.225856
Sum of atomic charges:   -0.0000000

LOEWDIN ATOMIC CHARGES
----------------------
   0 Mo:    0.381151
   1 C :   -0.264092
   2 C :   -0.264084
   3 C :   -0.264089
   4 O :    0.022279
   5 O :    0.022288
   6 O :    0.022291
   7 N :    0.071744
   8 N :    0.071738
   9 N :    0.071744
  10 C :   -0.113920
  11 C :   -0.113936
  12 C :   -0.113930
  13 C :    0.154138
  14 H :    0.001703
  15 H :   -0.001954
  16 H :    0.003048
  17 C :    0.154135
  18 H :    0.001710
  19 H :   -0.001954
  20 H :    0.003041
  21 C :    0.154157
  22 H :    0.001704
  23 H :   -0.001957
  24 H :    0.003045

  Mayer bond orders larger than 0.100000
B(  0-Mo,  1-C ) :   1.3928 B(  0-Mo,  2-C ) :   1.3919 B(  0-Mo,  3-C ) :   1.3936
B(  0-Mo,  7-N ) :   0.5266 B(  0-Mo,  8-N ) :   0.5254 B(  0-Mo,  9-N ) :   0.5259
B(  1-C ,  5-O ) :   1.7693 B(  2-C ,  6-O ) :   1.7690 B(  3-C ,  4-O ) :   1.7691
B(  7-N , 12-C ) :   2.7582 B(  8-N , 11-C ) :   2.7583 B(  9-N , 10-C ) :   2.7563
B( 10-C , 21-C ) :   0.3791 B( 11-C , 17-C ) :   0.3761 B( 12-C , 13-C ) :   0.3770
B( 13-C , 14-H ) :   1.0102 B( 13-C , 15-H ) :   0.9991 B( 13-C , 16-H ) :   1.0129
B( 17-C , 18-H ) :   1.0097 B( 17-C , 19-H ) :   0.9989 B( 17-C , 20-H ) :   1.0135
B( 21-C , 22-H ) :   1.0098 B( 21-C , 23-H ) :   0.9990 B( 21-C , 24-H ) :   1.0128

FINAL SINGLE POINT ENERGY      -806.573715175036

DIPOLE MOMENT
-------------
                                X             Y             Z
Electronic contribution:      0.00921      -0.00588     -40.23655
Nuclear contribution   :     -0.01011       0.00649      45.69854
                        -----------------------------------------
Total Dipole Moment    :     -0.00090       0.00061       5.46200
                        -----------------------------------------
Magnitude (a.u.)       :      5.46200
Magnitude (Debye)      :     13.88330

Rotational constants in cm-1:     0.011429     0.011429     0.011227
Rotational constants in MHz :   342.640201   342.631727   336.586559

                             ****ORCA TERMINATED NORMALLY****
TOTAL RUN TIME: 0 days 0 hours 6 minutes 58 seconds 885 msec
