                         Program Version 4.2.0 -  RELEASE  -
|  1> #
|  2> # MOR30_pr12 wB97M-V/Def2-TZVPPD
|  3> #
|  4> ! wb97m-v def2-tzvppd def2/jk grid4 nofinalgrid
|  5>
|  6> *xyz 0 1
|  7> Cr      -0.000015    0.000077   -0.030936
|  8> O       -3.048010    0.000059    0.176284
|  9> C       -1.899390    0.000055    0.076972
| 10> C        0.001618   -0.001981    1.838499
| 11> O        0.002800   -0.003409    2.993522
| 12> C        1.899510    0.000027    0.074271
| 13> O        3.048267   -0.000019    0.172029
| 14> C       -0.000196    1.904845   -0.051611
| 15> O       -0.000396    3.057825   -0.041163
| 16> C       -0.000244   -1.904616   -0.055186
| 17> O       -0.000506   -3.057616   -0.046760
| 18> C       -0.692601    0.002127   -2.246320
| 19> H       -1.244106   -0.917771   -2.406195
| 20> H       -1.243862    0.922423   -2.404834
| 21> C        0.689570    0.001986   -2.247230
| 22> H        1.240812    0.922165   -2.406446
| 23> H        1.240675   -0.918028   -2.407739
| 24> *
| 25>
| 26> %maxcore 5000
| 27>
| 28> %pal
| 29> nprocs = 24
| 30> end
| 31>
| 32>
| 33>                          ****END OF INPUT****

CARTESIAN COORDINATES (ANGSTROEM)
---------------------------------
  Cr    -0.000015    0.000077   -0.030936
  O     -3.048010    0.000059    0.176284
  C     -1.899390    0.000055    0.076972
  C      0.001618   -0.001981    1.838499
  O      0.002800   -0.003409    2.993522
  C      1.899510    0.000027    0.074271
  O      3.048267   -0.000019    0.172029
  C     -0.000196    1.904845   -0.051611
  O     -0.000396    3.057825   -0.041163
  C     -0.000244   -1.904616   -0.055186
  O     -0.000506   -3.057616   -0.046760
  C     -0.692601    0.002127   -2.246320
  H     -1.244106   -0.917771   -2.406195
  H     -1.243862    0.922423   -2.404834
  C      0.689570    0.001986   -2.247230
  H      1.240812    0.922165   -2.406446
  H      1.240675   -0.918028   -2.407739

 Total Charge           Charge          ....    0
 Multiplicity           Mult            ....    1
 Number of Electrons    NEL             ....  110
 Basis Dimension        Dim             ....  594

ORBITAL ENERGIES
----------------

  NO   OCC          E(Eh)            E(eV)
   0   2.0000    -216.216437     -5883.5484
   1   2.0000     -24.966004      -679.3595
   2   2.0000     -21.175920      -576.2261
   3   2.0000     -21.174115      -576.1770
   4   2.0000     -21.173355      -576.1563
   5   2.0000     -19.426921      -528.6334
   6   2.0000     -19.426917      -528.6333
   7   2.0000     -19.423135      -528.5304
   8   2.0000     -19.423134      -528.5304
   9   2.0000     -19.413568      -528.2700
  10   2.0000     -10.479922      -285.1732
  11   2.0000     -10.479921      -285.1731
  12   2.0000     -10.478047      -285.1222
  13   2.0000     -10.478044      -285.1221
  14   2.0000     -10.472388      -284.9682
  15   2.0000     -10.389819      -282.7214
  16   2.0000     -10.389256      -282.7060
  17   2.0000      -3.026610       -82.3583
  18   2.0000      -1.957478       -53.2657
  19   2.0000      -1.953309       -53.1523
  20   2.0000      -1.952714       -53.1360
  21   2.0000      -1.275936       -34.7200
  22   2.0000      -1.275711       -34.7139
  23   2.0000      -1.273428       -34.6517
  24   2.0000      -1.273408       -34.6512
  25   2.0000      -1.263466       -34.3807
  26   2.0000      -0.925061       -25.1722
  27   2.0000      -0.743017       -20.2185
  28   2.0000      -0.731683       -19.9101
  29   2.0000      -0.694615       -18.9014
  30   2.0000      -0.689215       -18.7545
  31   2.0000      -0.688645       -18.7390
  32   2.0000      -0.682657       -18.5760
  33   2.0000      -0.622269       -16.9328
  34   2.0000      -0.615213       -16.7408
  35   2.0000      -0.597653       -16.2630
  36   2.0000      -0.593356       -16.1460
  37   2.0000      -0.591953       -16.1078
  38   2.0000      -0.591200       -16.0874
  39   2.0000      -0.580898       -15.8070
  40   2.0000      -0.575798       -15.6683
  41   2.0000      -0.573909       -15.6169
  42   2.0000      -0.565295       -15.3825
  43   2.0000      -0.562296       -15.3009
  44   2.0000      -0.561608       -15.2821
  45   2.0000      -0.560113       -15.2415
  46   2.0000      -0.547951       -14.9105
  47   2.0000      -0.528812       -14.3897
  48   2.0000      -0.517939       -14.0938
  49   2.0000      -0.515490       -14.0272
  50   2.0000      -0.494091       -13.4449
  51   2.0000      -0.423993       -11.5374
  52   2.0000      -0.334161        -9.0930
  53   2.0000      -0.333201        -9.0669
  54   2.0000      -0.327243        -8.9047
  55   0.0000       0.013171         0.3584
  56   0.0000       0.022718         0.6182
  57   0.0000       0.023346         0.6353
  58   0.0000       0.026107         0.7104
  59   0.0000       0.032293         0.8787

MULLIKEN ATOMIC CHARGES
-----------------------
   0 Cr:   -0.838378
   1 O :   -0.387837
   2 C :    0.518351
   3 C :    0.550608
   4 O :   -0.389598
   5 C :    0.518699
   6 O :   -0.387947
   7 C :    0.559032
   8 O :   -0.378672
   9 C :    0.559331
  10 O :   -0.378753
  11 C :   -0.621788
  12 H :    0.324690
  13 H :    0.324809
  14 C :   -0.622300
  15 H :    0.324811
  16 H :    0.324942
Sum of atomic charges:   -0.0000000

LOEWDIN ATOMIC CHARGES
----------------------
   0 Cr:   -0.452392
   1 O :    0.159555
   2 C :   -0.098733
   3 C :   -0.111946
   4 O :    0.150793
   5 C :   -0.098744
   6 O :    0.159557
   7 C :   -0.064638
   8 O :    0.158184
   9 C :   -0.064677
  10 O :    0.158190
  11 C :    0.076734
  12 H :   -0.012161
  13 H :   -0.012136
  14 C :    0.076722
  15 H :   -0.012138
  16 H :   -0.012169

  Mayer bond orders larger than 0.100000
B(  0-Cr,  1-O ) :   0.1320 B(  0-Cr,  2-C ) :   0.9342 B(  0-Cr,  3-C ) :   1.1515
B(  0-Cr,  4-O ) :   0.1361 B(  0-Cr,  5-C ) :   0.9350 B(  0-Cr,  6-O ) :   0.1319
B(  0-Cr,  7-C ) :   0.9329 B(  0-Cr,  8-O ) :   0.1734 B(  0-Cr,  9-C ) :   0.9331
B(  0-Cr, 10-O ) :   0.1736 B(  0-Cr, 11-C ) :   0.2578 B(  0-Cr, 14-C ) :   0.2576
B(  1-O ,  2-C ) :   1.8931 B(  3-C ,  4-O ) :   1.9194 B(  5-C ,  6-O ) :   1.8934
B(  7-C ,  8-O ) :   1.8719 B(  9-C , 10-O ) :   1.8717 B( 11-C , 12-H ) :   1.0042
B( 11-C , 13-H ) :   1.0040 B( 11-C , 14-C ) :   1.0356 B( 14-C , 15-H ) :   1.0041
B( 14-C , 16-H ) :   1.0042

FINAL SINGLE POINT ENERGY     -1689.835501150864

DIPOLE MOMENT
-------------
                                X             Y             Z
Electronic contribution:      0.00528      -0.00683       7.81485
Nuclear contribution   :     -0.00600       0.00791      -8.87043
                        -----------------------------------------
Total Dipole Moment    :     -0.00072       0.00109      -1.05558
                        -----------------------------------------
Magnitude (a.u.)       :      1.05559
Magnitude (Debye)      :      2.68309

Rotational constants in cm-1:     0.023439     0.023057     0.021301
Rotational constants in MHz :   702.695821   691.231713   638.589543

                             ****ORCA TERMINATED NORMALLY****
TOTAL RUN TIME: 0 days 0 hours 5 minutes 8 seconds 520 msec
