                         Program Version 4.2.0 -  RELEASE  -
|  1> #
|  2> # MOR35_pr36 wB97M-V/Def2-TZVPPD
|  3> #
|  4> ! wb97m-v def2-tzvppd def2/jk grid4 nofinalgrid
|  5>
|  6> *xyz 0 1
|  7> Mo       0.001156    0.812745    0.000207
|  8> C        1.172497    1.772826   -1.694485
|  9> C        0.639726    0.579325   -2.273801
| 10> C       -0.771247    0.649846   -2.254302
| 11> C       -1.164711    1.879753   -1.653638
| 12> C        0.046469    2.597671   -1.356619
| 13> H        2.218029    2.030602   -1.618416
| 14> H        1.217264   -0.260486   -2.625291
| 15> H       -1.439014   -0.129218   -2.585395
| 16> H       -2.178363    2.230425   -1.528995
| 17> H        0.103229    3.616282   -1.010207
| 18> C       -0.046468    2.595414    1.359819
| 19> C       -1.170703    1.767726    1.696458
| 20> C        0.775662    0.648005    2.254259
| 21> C        1.166251    1.879509    1.655532
| 22> H       -2.216820    2.023173    1.620920
| 23> H       -1.210568   -0.267639    2.623707
| 24> C       -0.635131    0.574168    2.273601
| 25> H        2.179106    2.232469    1.530897
| 26> H       -0.105362    3.614384    1.014912
| 27> H        1.445278   -0.130208    2.583598
| 28> I        1.897907   -1.310822   -0.012606
| 29> I       -1.900461   -1.307301    0.011561
| 30> *
| 31>
| 32> %maxcore 5000
| 33>
| 34> %pal
| 35> nprocs = 24
| 36> end
| 37>
| 38>
| 39>                          ****END OF INPUT****

CARTESIAN COORDINATES (ANGSTROEM)
---------------------------------
  Mo     0.001156    0.812745    0.000207
  C      1.172497    1.772826   -1.694485
  C      0.639726    0.579325   -2.273801
  C     -0.771247    0.649846   -2.254302
  C     -1.164711    1.879753   -1.653638
  C      0.046469    2.597671   -1.356619
  H      2.218029    2.030602   -1.618416
  H      1.217264   -0.260486   -2.625291
  H     -1.439014   -0.129218   -2.585395
  H     -2.178363    2.230425   -1.528995
  H      0.103229    3.616282   -1.010207
  C     -0.046468    2.595414    1.359819
  C     -1.170703    1.767726    1.696458
  C      0.775662    0.648005    2.254259
  C      1.166251    1.879509    1.655532
  H     -2.216820    2.023173    1.620920
  H     -1.210568   -0.267639    2.623707
  C     -0.635131    0.574168    2.273601
  H      2.179106    2.232469    1.530897
  H     -0.105362    3.614384    1.014912
  H      1.445278   -0.130208    2.583598
  I      1.897907   -1.310822   -0.012606
  I     -1.900461   -1.307301    0.011561

 Total Charge           Charge          ....    0
 Multiplicity           Mult            ....    1
 Number of Electrons    NEL             ....  134
 Basis Dimension        Dim             ....  714

ORBITAL ENERGIES
----------------

  NO   OCC          E(Eh)            E(eV)
   0   2.0000     -10.406182      -283.1666
   1   2.0000     -10.406176      -283.1665
   2   2.0000     -10.398211      -282.9497
   3   2.0000     -10.398189      -282.9491
   4   2.0000     -10.396510      -282.9034
   5   2.0000     -10.396455      -282.9019
   6   2.0000     -10.394836      -282.8579
   7   2.0000     -10.394803      -282.8570
   8   2.0000     -10.393586      -282.8238
   9   2.0000     -10.393554      -282.8230
  10   2.0000      -6.957556      -189.3247
  11   2.0000      -6.957550      -189.3245
  12   2.0000      -4.964409      -135.0884
  13   2.0000      -4.964404      -135.0883
  14   2.0000      -4.957097      -134.8895
  15   2.0000      -4.957088      -134.8892
  16   2.0000      -4.956841      -134.8825
  17   2.0000      -4.956833      -134.8823
  18   2.0000      -2.746204       -74.7280
  19   2.0000      -1.983641       -53.9776
  20   2.0000      -1.983618       -53.9770
  21   2.0000      -1.981569       -53.9212
  22   2.0000      -1.981557       -53.9209
  23   2.0000      -1.981257       -53.9127
  24   2.0000      -1.981213       -53.9115
  25   2.0000      -1.975124       -53.7459
  26   2.0000      -1.975116       -53.7456
  27   2.0000      -1.975076       -53.7446
  28   2.0000      -1.975066       -53.7443
  29   2.0000      -1.758480       -47.8507
  30   2.0000      -1.737930       -47.2915
  31   2.0000      -1.719720       -46.7960
  32   2.0000      -1.056874       -28.7590
  33   2.0000      -1.040975       -28.3264
  34   2.0000      -0.883214       -24.0335
  35   2.0000      -0.875191       -23.8152
  36   2.0000      -0.873549       -23.7705
  37   2.0000      -0.871761       -23.7218
  38   2.0000      -0.762358       -20.7448
  39   2.0000      -0.752426       -20.4745
  40   2.0000      -0.712313       -19.3830
  41   2.0000      -0.692713       -18.8497
  42   2.0000      -0.690198       -18.7812
  43   2.0000      -0.689064       -18.7504
  44   2.0000      -0.684368       -18.6226
  45   2.0000      -0.673164       -18.3177
  46   2.0000      -0.566824       -15.4241
  47   2.0000      -0.549265       -14.9463
  48   2.0000      -0.545938       -14.8557
  49   2.0000      -0.545482       -14.8433
  50   2.0000      -0.542559       -14.7638
  51   2.0000      -0.524582       -14.2746
  52   2.0000      -0.519258       -14.1297
  53   2.0000      -0.516113       -14.0442
  54   2.0000      -0.513901       -13.9839
  55   2.0000      -0.506254       -13.7759
  56   2.0000      -0.420230       -11.4350
  57   2.0000      -0.413976       -11.2649
  58   2.0000      -0.407709       -11.0943
  59   2.0000      -0.388045       -10.5592
  60   2.0000      -0.374783       -10.1984
  61   2.0000      -0.359601        -9.7852
  62   2.0000      -0.357923        -9.7396
  63   2.0000      -0.308169        -8.3857
  64   2.0000      -0.306765        -8.3475
  65   2.0000      -0.294121        -8.0035
  66   2.0000      -0.289792        -7.8856
  67   0.0000      -0.004865        -0.1324
  68   0.0000       0.002155         0.0586
  69   0.0000       0.019584         0.5329
  70   0.0000       0.022190         0.6038
  71   0.0000       0.026980         0.7342

MULLIKEN ATOMIC CHARGES
-----------------------
   0 Mo:   -1.023206
   1 C :    0.160635
   2 C :   -0.543381
   3 C :   -0.573609
   4 C :    0.221776
   5 C :   -0.417687
   6 H :    0.156465
   7 H :    0.472689
   8 H :    0.494356
   9 H :    0.212953
  10 H :    0.519352
  11 C :   -0.415871
  12 C :    0.160529
  13 C :   -0.576525
  14 C :    0.220384
  15 H :    0.155808
  16 H :    0.471004
  17 C :   -0.541621
  18 H :    0.214031
  19 H :    0.519505
  20 H :    0.496045
  21 I :   -0.191771
  22 I :   -0.191862
Sum of atomic charges:    0.0000000

LOEWDIN ATOMIC CHARGES
----------------------
   0 Mo:    0.692517
   1 C :   -0.083568
   2 C :   -0.146444
   3 C :   -0.140704
   4 C :   -0.069088
   5 C :   -0.081140
   6 H :    0.009765
   7 H :   -0.043878
   8 H :   -0.045326
   9 H :    0.012728
  10 H :    0.002536
  11 C :   -0.081105
  12 C :   -0.084196
  13 C :   -0.140694
  14 C :   -0.068611
  15 H :    0.009636
  16 H :   -0.044150
  17 C :   -0.147014
  18 H :    0.012776
  19 H :    0.002512
  20 H :   -0.045474
  21 I :    0.239173
  22 I :    0.239747

  Mayer bond orders larger than 0.100000
B(  0-Mo,  1-C ) :   0.1688 B(  0-Mo,  2-C ) :   0.6529 B(  0-Mo,  3-C ) :   0.6137
B(  0-Mo,  4-C ) :   0.1586 B(  0-Mo,  5-C ) :   0.9572 B(  0-Mo, 11-C ) :   0.9566
B(  0-Mo, 12-C ) :   0.1690 B(  0-Mo, 13-C ) :   0.6126 B(  0-Mo, 14-C ) :   0.1583
B(  0-Mo, 17-C ) :   0.6536 B(  0-Mo, 21-I ) :   0.9223 B(  0-Mo, 22-I ) :   0.9215
B(  1-C ,  2-C ) :   0.6735 B(  1-C ,  3-C ) :  -0.1845 B(  1-C ,  5-C ) :   0.9778
B(  1-C ,  6-H ) :   1.0670 B(  1-C , 11-C ) :  -0.1710 B(  1-C , 12-C ) :   0.1062
B(  1-C , 14-C ) :   0.4119 B(  2-C ,  3-C ) :   0.8986 B(  2-C ,  4-C ) :  -0.1726
B(  2-C ,  7-H ) :   0.9155 B(  2-C , 21-I ) :   0.3105 B(  3-C ,  4-C ) :   0.6797
B(  3-C ,  8-H ) :   0.8806 B(  3-C , 22-I ) :   0.3492 B(  4-C ,  5-C ) :   0.9538
B(  4-C ,  9-H ) :   1.0089 B(  4-C , 11-C ) :  -0.1987 B(  4-C , 12-C ) :   0.4146
B(  5-C , 10-H ) :   0.7103 B(  5-C , 11-C ) :   0.1790 B(  5-C , 12-C ) :  -0.1710
B(  5-C , 14-C ) :  -0.1991 B(  7-H , 21-I ) :  -0.2522 B(  8-H , 22-I ) :  -0.2662
B( 11-C , 12-C ) :   0.9783 B( 11-C , 14-C ) :   0.9558 B( 11-C , 19-H ) :   0.7098
B( 12-C , 13-C ) :  -0.1870 B( 12-C , 15-H ) :   1.0673 B( 12-C , 17-C ) :   0.6722
B( 13-C , 14-C ) :   0.6836 B( 13-C , 17-C ) :   0.8991 B( 13-C , 20-H ) :   0.8787
B( 13-C , 21-I ) :   0.3500 B( 14-C , 17-C ) :  -0.1707 B( 14-C , 18-H ) :   1.0081
B( 16-H , 17-C ) :   0.9165 B( 16-H , 22-I ) :  -0.2503 B( 17-C , 22-I ) :   0.3104
B( 20-H , 21-I ) :  -0.2674

FINAL SINGLE POINT ENERGY     -1050.704063693184

DIPOLE MOMENT
-------------
                                X             Y             Z
Electronic contribution:     -0.09786    -124.00317      -0.05606
Nuclear contribution   :      0.10150     127.02090       0.05751
                        -----------------------------------------
Total Dipole Moment    :      0.00364       3.01773       0.00145
                        -----------------------------------------
Magnitude (a.u.)       :      3.01773
Magnitude (Debye)      :      7.67046

Rotational constants in cm-1:     0.012573     0.011263     0.008836
Rotational constants in MHz :   376.926737   337.652277   264.898337

                             ****ORCA TERMINATED NORMALLY****
TOTAL RUN TIME: 0 days 0 hours 21 minutes 46 seconds 693 msec
