                         Program Version 4.2.0 -  RELEASE  -
|  1> #
|  2> # TMB06_T1 wB97M-V/Def2-TZVPPD
|  3> #
|  4> ! wb97m-v def2-tzvppd def2/jk grid4 nofinalgrid
|  5>
|  6> *xyz -2 1
|  7> C       -5.371545   -2.136160    0.336278
|  8> C       -4.697063   -0.763740    0.262018
|  9> O       -4.978822    0.003309   -0.707502
| 10> O       -3.902613   -0.505987    1.212120
| 11> C        2.635057   -0.678655    2.396830
| 12> S        2.063323    1.004526    1.938677
| 13> C        2.314937   -2.581636   -1.299530
| 14> S        0.864820   -2.286095   -0.358137
| 15> C        3.240953   -1.614445   -1.507242
| 16> S        2.972432   -0.000985   -0.910324
| 17> C       -0.891125    2.751712   -1.395439
| 18> S        0.528832    2.543841   -0.360303
| 19> C       -1.489329    1.702419   -2.015371
| 20> S       -0.828634    0.070077   -1.896647
| 21> W        0.627788    0.033115    0.107608
| 22> O       -2.320739    1.386691    1.151938
| 23> C       -0.689027   -0.837880    1.297595
| 24> C       -0.745952    0.472117    1.605961
| 25> H       -4.850130   -2.819358   -0.346804
| 26> H       -5.250819   -2.525653    1.350280
| 27> H        1.778524   -1.298220    2.681124
| 28> H        3.117621   -1.144410    1.536216
| 29> H       -3.029141    0.618126    1.100277
| 30> H       -2.171098    1.699602    0.245945
| 31> H       -1.140104   -1.782909    1.572954
| 32> H       -0.640990    1.084034    2.487860
| 33> H       -1.256518    3.767648   -1.529996
| 34> H       -2.404891    1.822493   -2.590760
| 35> H        3.371580   -0.608085    3.204035
| 36> H        2.423780   -3.583247   -1.710229
| 37> H        4.191166   -1.850203   -1.981855
| 38> H       -6.431678   -2.086675    0.066661
| 39> *
| 40>
| 41> %maxcore 5000
| 42>
| 43> %pal
| 44> nprocs = 24
| 45> end
| 46>
| 47>
| 48>                          ****END OF INPUT****

CARTESIAN COORDINATES (ANGSTROEM)
---------------------------------
  C     -5.371545   -2.136160    0.336278
  C     -4.697063   -0.763740    0.262018
  O     -4.978822    0.003309   -0.707502
  O     -3.902613   -0.505987    1.212120
  C      2.635057   -0.678655    2.396830
  S      2.063323    1.004526    1.938677
  C      2.314937   -2.581636   -1.299530
  S      0.864820   -2.286095   -0.358137
  C      3.240953   -1.614445   -1.507242
  S      2.972432   -0.000985   -0.910324
  C     -0.891125    2.751712   -1.395439
  S      0.528832    2.543841   -0.360303
  C     -1.489329    1.702419   -2.015371
  S     -0.828634    0.070077   -1.896647
  W      0.627788    0.033115    0.107608
  O     -2.320739    1.386691    1.151938
  C     -0.689027   -0.837880    1.297595
  C     -0.745952    0.472117    1.605961
  H     -4.850130   -2.819358   -0.346804
  H     -5.250819   -2.525653    1.350280
  H      1.778524   -1.298220    2.681124
  H      3.117621   -1.144410    1.536216
  H     -3.029141    0.618126    1.100277
  H     -2.171098    1.699602    0.245945
  H     -1.140104   -1.782909    1.572954
  H     -0.640990    1.084034    2.487860
  H     -1.256518    3.767648   -1.529996
  H     -2.404891    1.822493   -2.590760
  H      3.371580   -0.608085    3.204035
  H      2.423780   -3.583247   -1.710229
  H      4.191166   -1.850203   -1.981855
  H     -6.431678   -2.086675    0.066661

 Total Charge           Charge          ....   -2
 Multiplicity           Mult            ....    1
 Number of Electrons    NEL             ....  188
 Basis Dimension        Dim             .... 1005

ORBITAL ENERGIES
----------------

  NO   OCC          E(Eh)            E(eV)
   0   2.0000     -88.959628     -2420.7146
   1   2.0000     -88.939603     -2420.1696
   2   2.0000     -88.934625     -2420.0342
   3   2.0000     -88.925992     -2419.7993
   4   2.0000     -88.923755     -2419.7384
   5   2.0000     -19.097283      -519.6635
   6   2.0000     -19.058083      -518.5968
   7   2.0000     -19.043093      -518.1889
   8   2.0000     -10.214072      -277.9390
   9   2.0000     -10.161172      -276.4996
  10   2.0000     -10.154273      -276.3118
  11   2.0000     -10.152575      -276.2656
  12   2.0000     -10.145984      -276.0863
  13   2.0000     -10.143220      -276.0111
  14   2.0000     -10.142060      -275.9795
  15   2.0000     -10.130462      -275.6639
  16   2.0000     -10.113809      -275.2107
  17   2.0000      -7.888037      -214.6444
  18   2.0000      -7.868594      -214.1153
  19   2.0000      -7.863297      -213.9712
  20   2.0000      -7.854734      -213.7382
  21   2.0000      -7.852726      -213.6835
  22   2.0000      -5.797464      -157.7570
  23   2.0000      -5.793611      -157.6522
  24   2.0000      -5.792396      -157.6191
  25   2.0000      -5.778309      -157.2358
  26   2.0000      -5.773866      -157.1149
  27   2.0000      -5.773128      -157.0948
  28   2.0000      -5.772836      -157.0869
  29   2.0000      -5.769101      -156.9852
  30   2.0000      -5.767001      -156.9281
  31   2.0000      -5.764746      -156.8667
  32   2.0000      -5.763059      -156.8208
  33   2.0000      -5.760396      -156.7483
  34   2.0000      -5.759188      -156.7155
  35   2.0000      -5.758423      -156.6946
  36   2.0000      -5.755149      -156.6056
  37   2.0000      -2.904302       -79.0301
  38   2.0000      -1.543272       -41.9946
  39   2.0000      -1.538219       -41.8571
  40   2.0000      -1.533953       -41.7410
  41   2.0000      -0.933157       -25.3925
  42   2.0000      -0.894827       -24.3495
  43   2.0000      -0.836498       -22.7623
  44   2.0000      -0.723150       -19.6779
  45   2.0000      -0.702806       -19.1243
  46   2.0000      -0.659214       -17.9381
  47   2.0000      -0.645994       -17.5784
  48   2.0000      -0.631418       -17.1818
  49   2.0000      -0.620493       -16.8845
  50   2.0000      -0.599149       -16.3037
  51   2.0000      -0.552507       -15.0345
  52   2.0000      -0.532362       -14.4863
  53   2.0000      -0.501760       -13.6536
  54   2.0000      -0.451396       -12.2831
  55   2.0000      -0.434595       -11.8259
  56   2.0000      -0.425026       -11.5656
  57   2.0000      -0.408696       -11.1212
  58   2.0000      -0.377528       -10.2731
  59   2.0000      -0.370881       -10.0922
  60   2.0000      -0.357678        -9.7329
  61   2.0000      -0.352805        -9.6003
  62   2.0000      -0.332183        -9.0392
  63   2.0000      -0.324855        -8.8398
  64   2.0000      -0.322080        -8.7642
  65   2.0000      -0.316794        -8.6204
  66   2.0000      -0.312269        -8.4973
  67   2.0000      -0.300055        -8.1649
  68   2.0000      -0.280570        -7.6347
  69   2.0000      -0.268300        -7.3008
  70   2.0000      -0.260562        -7.0903
  71   2.0000      -0.252650        -6.8749
  72   2.0000      -0.238323        -6.4851
  73   2.0000      -0.236986        -6.4487
  74   2.0000      -0.226893        -6.1741
  75   2.0000      -0.219628        -5.9764
  76   2.0000      -0.210149        -5.7185
  77   2.0000      -0.197943        -5.3863
  78   2.0000      -0.191043        -5.1985
  79   2.0000      -0.172635        -4.6976
  80   2.0000      -0.163261        -4.4426
  81   2.0000      -0.157226        -4.2783
  82   2.0000      -0.141531        -3.8513
  83   2.0000      -0.135828        -3.6961
  84   2.0000      -0.132140        -3.5957
  85   2.0000      -0.129841        -3.5331
  86   2.0000      -0.114769        -3.1230
  87   2.0000      -0.114402        -3.1130
  88   2.0000      -0.111778        -3.0416
  89   2.0000      -0.103841        -2.8256
  90   2.0000      -0.086623        -2.3571
  91   2.0000      -0.078160        -2.1268
  92   2.0000      -0.062019        -1.6876
  93   2.0000      -0.033748        -0.9183
  94   0.0000       0.178058         4.8452
  95   0.0000       0.187990         5.1155
  96   0.0000       0.191529         5.2118
  97   0.0000       0.193954         5.2778
  98   0.0000       0.203111         5.5269

MULLIKEN ATOMIC CHARGES
-----------------------
   0 C :   -0.945821
   1 C :    0.757492
   2 O :   -0.745602
   3 O :   -0.648331
   4 C :   -0.539807
   5 S :   -0.311768
   6 C :   -0.075930
   7 S :   -0.218341
   8 C :   -0.173028
   9 S :   -0.195869
  10 C :   -0.153578
  11 S :   -0.249261
  12 C :   -0.200107
  13 S :   -0.180125
  14 W :   -0.376425
  15 O :   -0.576591
  16 C :   -0.325801
  17 C :   -0.053859
  18 H :    0.183364
  19 H :    0.271869
  20 H :    0.215843
  21 H :    0.155059
  22 H :    0.435418
  23 H :    0.294914
  24 H :    0.234734
  25 H :    0.338828
  26 H :    0.143074
  27 H :    0.127971
  28 H :    0.312673
  29 H :    0.109300
  30 H :    0.111910
  31 H :    0.277795
Sum of atomic charges:   -2.0000000

LOEWDIN ATOMIC CHARGES
----------------------
   0 C :    0.163162
   1 C :   -0.643699
   2 O :   -0.072594
   3 O :    0.033765
   4 C :   -0.321660
   5 S :    0.408195
   6 C :   -0.567493
   7 S :    0.609111
   8 C :   -0.600127
   9 S :    0.494598
  10 C :   -0.599902
  11 S :    0.478041
  12 C :   -0.581631
  13 S :    0.535659
  14 W :    0.149906
  15 O :    0.336071
  16 C :   -0.235765
  17 C :   -0.244949
  18 H :   -0.019546
  19 H :   -0.031913
  20 H :   -0.091324
  21 H :   -0.131267
  22 H :   -0.287924
  23 H :   -0.234359
  24 H :   -0.063005
  25 H :   -0.051356
  26 H :   -0.076529
  27 H :   -0.066576
  28 H :   -0.088728
  29 H :   -0.087874
  30 H :   -0.080590
  31 H :   -0.029698

  Mayer bond orders larger than 0.100000
B(  0-C ,  1-C ) :   0.7180 B(  0-C , 18-H ) :   1.0130 B(  0-C , 19-H ) :   0.9874
B(  0-C , 31-H ) :   0.9950 B(  1-C ,  2-O ) :   1.4623 B(  1-C ,  3-O ) :   1.3343
B(  3-O , 22-H ) :   0.1984 B(  4-C ,  5-S ) :   0.7894 B(  4-C ,  9-S ) :  -0.1094
B(  4-C , 20-H ) :   1.0079 B(  4-C , 21-H ) :   0.9227 B(  4-C , 28-H ) :   0.9270
B(  5-S , 14-W ) :   1.1543 B(  5-S , 16-C ) :  -0.1419 B(  5-S , 17-C ) :   0.1131
B(  6-C ,  7-S ) :   0.8592 B(  6-C ,  8-C ) :   1.3067 B(  6-C , 29-H ) :   1.1590
B(  6-C , 30-H ) :  -0.1370 B(  7-S ,  8-C ) :   0.1338 B(  7-S , 14-W ) :   1.2688
B(  8-C ,  9-S ) :   1.0360 B(  8-C , 29-H ) :  -0.1331 B(  8-C , 30-H ) :   1.1687
B(  9-S , 14-W ) :   1.0060 B( 10-C , 11-S ) :   1.0471 B( 10-C , 12-C ) :   1.1351
B( 10-C , 26-H ) :   1.1676 B( 10-C , 27-H ) :  -0.1690 B( 11-S , 14-W ) :   1.0479
B( 11-S , 17-C ) :  -0.1348 B( 12-C , 13-S ) :   1.0890 B( 12-C , 26-H ) :  -0.1425
B( 12-C , 27-H ) :   1.1912 B( 13-S , 14-W ) :   1.1240 B( 14-W , 16-C ) :   1.2903
B( 14-W , 17-C ) :   0.7435 B( 15-O , 17-C ) :   0.1733 B( 15-O , 22-H ) :   0.5379
B( 15-O , 23-H ) :   0.9016 B( 16-C , 17-C ) :   0.8177 B( 16-C , 24-H ) :   0.8813
B( 17-C , 25-H ) :   1.0270

FINAL SINGLE POINT ENERGY     -2635.158204653471

DIPOLE MOMENT
-------------
                                X             Y             Z
Electronic contribution:     97.82908       9.29105      10.90071
Nuclear contribution   :    -95.08812     -10.49452     -10.64317
                        -----------------------------------------
Total Dipole Moment    :      2.74095      -1.20347       0.25754
                        -----------------------------------------
Magnitude (a.u.)       :      3.00458
Magnitude (Debye)      :      7.63704

Rotational constants in cm-1:     0.011727     0.005648     0.005281
Rotational constants in MHz :   351.552196   169.313101   158.324155

                             ****ORCA TERMINATED NORMALLY****
TOTAL RUN TIME: 0 days 0 hours 22 minutes 13 seconds 316 msec
