                         Program Version 4.2.0 -  RELEASE  -
|  1> #
|  2> # TMB01_R2 wB97M-V/Def2-TZVPPD
|  3> #
|  4> ! wb97m-v def2-tzvppd def2/jk grid4 nofinalgrid
|  5>
|  6> *xyz 0 1
|  7> C        0.000000    0.000000    0.598253
|  8> C        0.000000    0.000000   -0.598253
|  9> H        0.000000    0.000000    1.662161
| 10> H        0.000000    0.000000   -1.662161
| 11> *
| 12>
| 13> %maxcore 5000
| 14>
| 15> %pal
| 16> nprocs = 24
| 17> end
| 18>
| 19>
| 20>                          ****END OF INPUT****

CARTESIAN COORDINATES (ANGSTROEM)
---------------------------------
  C      0.000000    0.000000    0.598253
  C      0.000000    0.000000   -0.598253
  H      0.000000    0.000000    1.662161
  H      0.000000    0.000000   -1.662161

 Total Charge           Charge          ....    0
 Multiplicity           Mult            ....    1
 Number of Electrons    NEL             ....   14
 Basis Dimension        Dim             ....  108

ORBITAL ENERGIES
----------------

  NO   OCC          E(Eh)            E(eV)
   0   2.0000     -10.354249      -281.7534
   1   2.0000     -10.351682      -281.6836
   2   2.0000      -0.880538       -23.9607
   3   2.0000      -0.680696       -18.5227
   4   2.0000      -0.606345       -16.4995
   5   2.0000      -0.398591       -10.8462
   6   2.0000      -0.398591       -10.8462
   7   0.0000       0.045326         1.2334
   8   0.0000       0.061051         1.6613
   9   0.0000       0.093918         2.5556
  10   0.0000       0.093918         2.5556
  11   0.0000       0.119948         3.2640

MULLIKEN ATOMIC CHARGES
-----------------------
   0 C :   -0.192438
   1 C :   -0.192742
   2 H :    0.192627
   3 H :    0.192553
Sum of atomic charges:    0.0000000

LOEWDIN ATOMIC CHARGES
----------------------
   0 C :    0.096845
   1 C :    0.096845
   2 H :   -0.096845
   3 H :   -0.096845

  Mayer bond orders larger than 0.100000
B(  0-C ,  1-C ) :   2.7702 B(  0-C ,  2-H ) :   1.0097 B(  1-C ,  3-H ) :   1.0100

FINAL SINGLE POINT ENERGY       -77.325450204539

DIPOLE MOMENT
-------------
                                X             Y             Z
Electronic contribution:      0.00000      -0.00000      -0.00000
Nuclear contribution   :      0.00000       0.00000       0.00000
                        -----------------------------------------
Total Dipole Moment    :      0.00000      -0.00000      -0.00000
                        -----------------------------------------
Magnitude (a.u.)       :      0.00000
Magnitude (Debye)      :      0.00000

Rotational constants in cm-1:     0.000000     1.189890     1.189890
Rotational constants in MHz :     0.000000 35672.008035 35672.008035

                             ****ORCA TERMINATED NORMALLY****
TOTAL RUN TIME: 0 days 0 hours 0 minutes 3 seconds 369 msec
