                         Program Version 4.2.0 -  RELEASE  -
|  1> #
|  2> # TMB09_T1 wB97M-V/Def2-TZVPPD
|  3> #
|  4> ! wb97m-v def2-tzvppd def2/jk grid4 nofinalgrid
|  5>
|  6> *xyz 0 1
|  7> Mo       0.144293   -0.018278    0.187956
|  8> C       -1.882744   -1.070987   -0.485243
|  9> C       -1.076439    2.809087   -0.488683
| 10> H       -1.056313    3.572787    0.310053
| 11> H       -2.117393    2.730299   -0.852689
| 12> H       -0.453643    3.172151   -1.326804
| 13> C        1.996084   -2.290843   -0.946924
| 14> C        2.556730    1.794509   -0.039409
| 15> N       -0.610025    1.553803    0.004719
| 16> O        1.936938    0.565567   -0.322724
| 17> O        0.833025   -1.766355   -0.360705
| 18> H        1.780871   -2.689531   -1.957376
| 19> H        2.380311   -3.126092   -0.331250
| 20> H        2.779790   -1.516765   -1.025980
| 21> H        3.470410    1.892833   -0.654307
| 22> H        2.854397    1.863620    1.026056
| 23> H        1.897937    2.657406   -0.259961
| 24> C       -0.134457   -0.284271    2.087106
| 25> C       -1.864166   -1.358035    0.884748
| 26> H        0.299474   -1.167843    2.578202
| 27> H       -0.661177    0.399181    2.762773
| 28> H       -1.449974   -2.303708    1.234049
| 29> H       -2.567349   -0.858578    1.555883
| 30> C       -2.930318   -0.174171   -1.105185
| 31> H       -2.557155    0.344677   -2.001613
| 32> H       -3.799822   -0.779414   -1.421129
| 33> H       -3.293476    0.582538   -0.393193
| 34> H       -1.444854   -1.827941   -1.140932
| 35> *
| 36>
| 37> %maxcore 5000
| 38>
| 39> %pal
| 40> nprocs = 24
| 41> end
| 42>
| 43>
| 44>                          ****END OF INPUT****

CARTESIAN COORDINATES (ANGSTROEM)
---------------------------------
  Mo     0.144293   -0.018278    0.187956
  C     -1.882744   -1.070987   -0.485243
  C     -1.076439    2.809087   -0.488683
  H     -1.056313    3.572787    0.310053
  H     -2.117393    2.730299   -0.852689
  H     -0.453643    3.172151   -1.326804
  C      1.996084   -2.290843   -0.946924
  C      2.556730    1.794509   -0.039409
  N     -0.610025    1.553803    0.004719
  O      1.936938    0.565567   -0.322724
  O      0.833025   -1.766355   -0.360705
  H      1.780871   -2.689531   -1.957376
  H      2.380311   -3.126092   -0.331250
  H      2.779790   -1.516765   -1.025980
  H      3.470410    1.892833   -0.654307
  H      2.854397    1.863620    1.026056
  H      1.897937    2.657406   -0.259961
  C     -0.134457   -0.284271    2.087106
  C     -1.864166   -1.358035    0.884748
  H      0.299474   -1.167843    2.578202
  H     -0.661177    0.399181    2.762773
  H     -1.449974   -2.303708    1.234049
  H     -2.567349   -0.858578    1.555883
  C     -2.930318   -0.174171   -1.105185
  H     -2.557155    0.344677   -2.001613
  H     -3.799822   -0.779414   -1.421129
  H     -3.293476    0.582538   -0.393193
  H     -1.444854   -1.827941   -1.140932

 Total Charge           Charge          ....    0
 Multiplicity           Mult            ....    1
 Number of Electrons    NEL             ....   96
 Basis Dimension        Dim             ....  721

ORBITAL ENERGIES
----------------

  NO   OCC          E(Eh)            E(eV)
   0   2.0000     -19.292130      -524.9656
   1   2.0000     -19.291091      -524.9373
   2   2.0000     -14.504361      -394.6837
   3   2.0000     -10.385753      -282.6107
   4   2.0000     -10.379253      -282.4338
   5   2.0000     -10.367343      -282.1098
   6   2.0000     -10.366448      -282.0854
   7   2.0000     -10.365698      -282.0650
   8   2.0000     -10.359853      -281.9059
   9   2.0000     -10.350603      -281.6542
  10   2.0000      -2.749674       -74.8224
  11   2.0000      -1.752649       -47.6920
  12   2.0000      -1.741026       -47.3757
  13   2.0000      -1.733330       -47.1663
  14   2.0000      -1.082782       -29.4640
  15   2.0000      -1.074638       -29.2424
  16   2.0000      -0.964839       -26.2546
  17   2.0000      -0.927599       -25.2413
  18   2.0000      -0.824545       -22.4370
  19   2.0000      -0.773886       -21.0585
  20   2.0000      -0.764150       -20.7936
  21   2.0000      -0.757513       -20.6130
  22   2.0000      -0.738831       -20.1046
  23   2.0000      -0.687720       -18.7138
  24   2.0000      -0.596098       -16.2206
  25   2.0000      -0.564107       -15.3501
  26   2.0000      -0.556017       -15.1300
  27   2.0000      -0.553302       -15.0561
  28   2.0000      -0.547795       -14.9062
  29   2.0000      -0.543223       -14.7818
  30   2.0000      -0.535711       -14.5774
  31   2.0000      -0.530434       -14.4338
  32   2.0000      -0.522405       -14.2154
  33   2.0000      -0.517213       -14.0741
  34   2.0000      -0.515131       -14.0174
  35   2.0000      -0.497018       -13.5245
  36   2.0000      -0.492030       -13.3888
  37   2.0000      -0.483441       -13.1551
  38   2.0000      -0.459379       -12.5003
  39   2.0000      -0.448709       -12.2100
  40   2.0000      -0.416293       -11.3279
  41   2.0000      -0.394523       -10.7355
  42   2.0000      -0.385487       -10.4896
  43   2.0000      -0.365579        -9.9479
  44   2.0000      -0.361739        -9.8434
  45   2.0000      -0.345086        -9.3903
  46   2.0000      -0.334142        -9.0925
  47   2.0000      -0.307511        -8.3678
  48   0.0000       0.019518         0.5311
  49   0.0000       0.029710         0.8084
  50   0.0000       0.032790         0.8923
  51   0.0000       0.041394         1.1264
  52   0.0000       0.048051         1.3075

MULLIKEN ATOMIC CHARGES
-----------------------
   0 Mo:    0.595773
   1 C :    0.020975
   2 C :   -0.721971
   3 H :    0.278237
   4 H :    0.286519
   5 H :    0.262937
   6 C :   -0.653966
   7 C :   -0.553045
   8 N :   -0.577442
   9 O :   -0.508633
  10 O :   -0.378292
  11 H :    0.241446
  12 H :    0.231644
  13 H :    0.205188
  14 H :    0.204303
  15 H :    0.220849
  16 H :    0.157483
  17 C :   -0.355878
  18 C :   -0.216611
  19 H :    0.331229
  20 H :    0.312937
  21 H :    0.403525
  22 H :    0.303948
  23 C :   -1.346290
  24 H :    0.246836
  25 H :    0.344437
  26 H :    0.255075
  27 H :    0.408785
Sum of atomic charges:   -0.0000000

LOEWDIN ATOMIC CHARGES
----------------------
   0 Mo:    1.146032
   1 C :   -0.195586
   2 C :    0.012209
   3 H :   -0.005899
   4 H :   -0.019511
   5 H :   -0.006705
   6 C :   -0.002177
   7 C :   -0.023005
   8 N :   -0.112066
   9 O :   -0.352179
  10 O :   -0.342231
  11 H :   -0.005533
  12 H :   -0.004974
  13 H :   -0.022760
  14 H :   -0.005464
  15 H :   -0.006920
  16 H :   -0.025156
  17 C :    0.068609
  18 C :    0.069081
  19 H :   -0.084563
  20 H :   -0.090776
  21 H :   -0.017453
  22 H :   -0.009576
  23 C :    0.087190
  24 H :   -0.014406
  25 H :   -0.006215
  26 H :   -0.016988
  27 H :   -0.012980

  Mayer bond orders larger than 0.100000
B(  0-Mo,  1-C ) :   0.7181 B(  0-Mo,  2-C ) :   0.1293 B(  0-Mo,  8-N ) :   1.5378
B(  0-Mo,  9-O ) :   0.8217 B(  0-Mo, 10-O ) :   0.8793 B(  0-Mo, 17-C ) :   1.5948
B(  0-Mo, 18-C ) :   0.2140 B(  0-Mo, 23-C ) :   0.1768 B(  1-C , 10-O ) :  -0.1037
B(  1-C , 18-C ) :   0.7084 B(  1-C , 23-C ) :   0.5536 B(  1-C , 26-H ) :  -0.1084
B(  1-C , 27-H ) :   0.8616 B(  2-C ,  3-H ) :   0.9602 B(  2-C ,  4-H ) :   0.8824
B(  2-C ,  5-H ) :   0.9637 B(  2-C ,  8-N ) :   0.4553 B(  6-C , 10-O ) :   0.7920
B(  6-C , 11-H ) :   0.9744 B(  6-C , 12-H ) :   0.9756 B(  6-C , 13-H ) :   0.9471
B(  7-C ,  9-O ) :   0.8391 B(  7-C , 14-H ) :   1.0096 B(  7-C , 15-H ) :   0.9748
B(  7-C , 16-H ) :   0.9312 B( 17-C , 18-C ) :   0.1430 B( 17-C , 19-H ) :   0.9527
B( 17-C , 20-H ) :   0.9716 B( 18-C , 21-H ) :   0.8920 B( 18-C , 22-H ) :   1.0182
B( 23-C , 24-H ) :   0.9993 B( 23-C , 25-H ) :   0.9365 B( 23-C , 26-H ) :   1.0281

FINAL SINGLE POINT ENERGY      -550.260913773829

DIPOLE MOMENT
-------------
                                X             Y             Z
Electronic contribution:     10.58941      -2.95254      13.29531
Nuclear contribution   :    -11.80214       3.30573     -13.02417
                        -----------------------------------------
Total Dipole Moment    :     -1.21273       0.35318       0.27114
                        -----------------------------------------
Magnitude (a.u.)       :      1.29188
Magnitude (Debye)      :      3.28371

Rotational constants in cm-1:     0.031577     0.026703     0.018834
Rotational constants in MHz :   946.666634   800.534327   564.625423

                             ****ORCA TERMINATED NORMALLY****
TOTAL RUN TIME: 0 days 0 hours 7 minutes 18 seconds 970 msec
