                         Program Version 4.2.0 -  RELEASE  -
|  1> #
|  2> # TMB08_T1 wB97M-V/Def2-TZVPPD
|  3> #
|  4> ! wb97m-v def2-tzvppd def2/jk grid4 nofinalgrid
|  5>
|  6> *xyz -1 1
|  7> O       -0.864683   -0.641223    1.501083
|  8> Mo       0.288309   -0.030923   -0.005993
|  9> O       -1.184159   -0.828813   -0.891579
| 10> S        2.210721   -0.462566    1.360243
| 11> C        3.288131   -1.501862    0.490518
| 12> C        2.967024   -1.951648   -0.740634
| 13> S        1.453819   -1.539049   -1.466752
| 14> S        0.162904    2.082815    1.150192
| 15> C        0.198674    3.373932   -0.002877
| 16> C        0.341525    3.101047   -1.316307
| 17> S        0.442237    1.474962   -1.896418
| 18> S       -2.702756   -1.277235    0.090908
| 19> C       -3.341924    0.299743    0.636465
| 20> H       -3.337931    0.314090    1.732942
| 21> H       -2.648387    1.079744    0.273451
| 22> H       -4.358042    0.459892    0.247281
| 23> C       -3.587204   -1.408361   -1.466934
| 24> H       -3.173718   -2.281309   -1.989593
| 25> H       -4.662596   -1.555426   -1.282985
| 26> H       -3.398030   -0.511824   -2.074907
| 27> C       -0.765264   -0.491871    2.877457
| 28> H       -0.827293    0.572940    3.181404
| 29> H       -1.595209   -1.039646    3.369476
| 30> H        0.192972   -0.897436    3.256104
| 31> H        3.640777   -2.597035   -1.314559
| 32> H        4.229728   -1.767232    0.982509
| 33> H        0.401774    3.897233   -2.066529
| 34> H        0.141166    4.396366    0.384198
| 35> *
| 36>
| 37> %maxcore 5000
| 38>
| 39> %pal
| 40> nprocs = 24
| 41> end
| 42>
| 43>
| 44>                          ****END OF INPUT****

CARTESIAN COORDINATES (ANGSTROEM)
---------------------------------
  O     -0.864683   -0.641223    1.501083
  Mo     0.288309   -0.030923   -0.005993
  O     -1.184159   -0.828813   -0.891579
  S      2.210721   -0.462566    1.360243
  C      3.288131   -1.501862    0.490518
  C      2.967024   -1.951648   -0.740634
  S      1.453819   -1.539049   -1.466752
  S      0.162904    2.082815    1.150192
  C      0.198674    3.373932   -0.002877
  C      0.341525    3.101047   -1.316307
  S      0.442237    1.474962   -1.896418
  S     -2.702756   -1.277235    0.090908
  C     -3.341924    0.299743    0.636465
  H     -3.337931    0.314090    1.732942
  H     -2.648387    1.079744    0.273451
  H     -4.358042    0.459892    0.247281
  C     -3.587204   -1.408361   -1.466934
  H     -3.173718   -2.281309   -1.989593
  H     -4.662596   -1.555426   -1.282985
  H     -3.398030   -0.511824   -2.074907
  C     -0.765264   -0.491871    2.877457
  H     -0.827293    0.572940    3.181404
  H     -1.595209   -1.039646    3.369476
  H      0.192972   -0.897436    3.256104
  H      3.640777   -2.597035   -1.314559
  H      4.229728   -1.767232    0.982509
  H      0.401774    3.897233   -2.066529
  H      0.141166    4.396366    0.384198

 Total Charge           Charge          ....   -1
 Multiplicity           Mult            ....    1
 Number of Electrons    NEL             ....  166
 Basis Dimension        Dim             ....  871

ORBITAL ENERGIES
----------------

  NO   OCC          E(Eh)            E(eV)
   0   2.0000     -89.175229     -2426.5814
   1   2.0000     -89.022491     -2422.4251
   2   2.0000     -89.020663     -2422.3754
   3   2.0000     -89.019841     -2422.3530
   4   2.0000     -89.018618     -2422.3198
   5   2.0000     -19.225168      -523.1434
   6   2.0000     -19.192563      -522.2562
   7   2.0000     -10.286353      -279.9059
   8   2.0000     -10.285277      -279.8766
   9   2.0000     -10.261266      -279.2232
  10   2.0000     -10.225552      -278.2514
  11   2.0000     -10.224764      -278.2300
  12   2.0000     -10.224377      -278.2194
  13   2.0000     -10.223535      -278.1965
  14   2.0000      -8.094901      -220.2734
  15   2.0000      -7.952225      -216.3910
  16   2.0000      -7.950177      -216.3353
  17   2.0000      -7.949174      -216.3080
  18   2.0000      -7.947818      -216.2711
  19   2.0000      -6.003858      -163.3733
  20   2.0000      -6.002648      -163.3403
  21   2.0000      -5.998895      -163.2382
  22   2.0000      -5.861629      -159.5030
  23   2.0000      -5.859569      -159.4470
  24   2.0000      -5.858608      -159.4208
  25   2.0000      -5.857402      -159.3880
  26   2.0000      -5.857349      -159.3866
  27   2.0000      -5.856856      -159.3731
  28   2.0000      -5.855183      -159.3276
  29   2.0000      -5.855000      -159.3227
  30   2.0000      -5.854476      -159.3084
  31   2.0000      -5.853656      -159.2861
  32   2.0000      -5.852844      -159.2640
  33   2.0000      -5.852507      -159.2548
  34   2.0000      -2.599062       -70.7241
  35   2.0000      -1.600448       -43.5504
  36   2.0000      -1.592318       -43.3292
  37   2.0000      -1.576975       -42.9117
  38   2.0000      -0.989014       -26.9124
  39   2.0000      -0.957513       -26.0553
  40   2.0000      -0.843945       -22.9649
  41   2.0000      -0.798015       -21.7151
  42   2.0000      -0.795267       -21.6403
  43   2.0000      -0.749847       -20.4044
  44   2.0000      -0.696309       -18.9475
  45   2.0000      -0.693311       -18.8659
  46   2.0000      -0.661126       -17.9902
  47   2.0000      -0.642968       -17.4961
  48   2.0000      -0.626405       -17.0453
  49   2.0000      -0.612512       -16.6673
  50   2.0000      -0.497954       -13.5500
  51   2.0000      -0.493236       -13.4216
  52   2.0000      -0.488277       -13.2867
  53   2.0000      -0.482821       -13.1382
  54   2.0000      -0.469180       -12.7670
  55   2.0000      -0.447241       -12.1700
  56   2.0000      -0.443956       -12.0807
  57   2.0000      -0.441142       -12.0041
  58   2.0000      -0.433689       -11.8013
  59   2.0000      -0.431520       -11.7423
  60   2.0000      -0.419588       -11.4176
  61   2.0000      -0.400600       -10.9009
  62   2.0000      -0.382889       -10.4189
  63   2.0000      -0.362787        -9.8719
  64   2.0000      -0.349059        -9.4984
  65   2.0000      -0.334312        -9.0971
  66   2.0000      -0.329061        -8.9542
  67   2.0000      -0.319291        -8.6883
  68   2.0000      -0.310978        -8.4621
  69   2.0000      -0.302436        -8.2297
  70   2.0000      -0.293693        -7.9918
  71   2.0000      -0.282282        -7.6813
  72   2.0000      -0.263610        -7.1732
  73   2.0000      -0.259768        -7.0686
  74   2.0000      -0.251609        -6.8466
  75   2.0000      -0.231134        -6.2895
  76   2.0000      -0.213296        -5.8041
  77   2.0000      -0.207273        -5.6402
  78   2.0000      -0.193747        -5.2721
  79   2.0000      -0.186500        -5.0749
  80   2.0000      -0.164226        -4.4688
  81   2.0000      -0.136312        -3.7092
  82   2.0000      -0.118062        -3.2126
  83   0.0000       0.088263         2.4018
  84   0.0000       0.110522         3.0075
  85   0.0000       0.113258         3.0819
  86   0.0000       0.116867         3.1801
  87   0.0000       0.126678         3.4471

MULLIKEN ATOMIC CHARGES
-----------------------
   0 O :   -0.225466
   1 Mo:   -0.193760
   2 O :   -0.278914
   3 S :   -0.177408
   4 C :   -0.109530
   5 C :   -0.015489
   6 S :   -0.184052
   7 S :   -0.199857
   8 C :   -0.097325
   9 C :   -0.117444
  10 S :   -0.128205
  11 S :    0.236579
  12 C :   -0.589156
  13 H :    0.280516
  14 H :    0.107041
  15 H :    0.358297
  16 C :   -0.897014
  17 H :    0.312877
  18 H :    0.328172
  19 H :    0.306375
  20 C :   -0.891790
  21 H :    0.277898
  22 H :    0.244058
  23 H :    0.267943
  24 H :    0.094080
  25 H :    0.093505
  26 H :    0.089507
  27 H :    0.108563
Sum of atomic charges:   -1.0000000

LOEWDIN ATOMIC CHARGES
----------------------
   0 O :   -0.549029
   1 Mo:    0.327582
   2 O :   -0.686842
   3 S :    0.558193
   4 C :   -0.611545
   5 C :   -0.616033
   6 S :    0.543654
   7 S :    0.558288
   8 C :   -0.613423
   9 C :   -0.631345
  10 S :    0.524435
  11 S :    1.048663
  12 C :   -0.060655
  13 H :   -0.043508
  14 H :   -0.042368
  15 H :   -0.040022
  16 C :   -0.089769
  17 H :   -0.040539
  18 H :   -0.045996
  19 H :   -0.029719
  20 C :   -0.083527
  21 H :   -0.042358
  22 H :   -0.005715
  23 H :   -0.038646
  24 H :   -0.071543
  25 H :   -0.072410
  26 H :   -0.072586
  27 H :   -0.073239

  Mayer bond orders larger than 0.100000
B(  0-O ,  1-Mo) :   0.5665 B(  0-O , 11-S ) :   0.1062 B(  0-O , 20-C ) :   0.8362
B(  1-Mo,  2-O ) :   0.8766 B(  1-Mo,  3-S ) :   1.3276 B(  1-Mo,  6-S ) :   1.3729
B(  1-Mo,  7-S ) :   1.1427 B(  1-Mo, 10-S ) :   1.2089 B(  1-Mo, 11-S ) :   0.2644
B(  2-O ,  6-S ) :  -0.1332 B(  2-O , 11-S ) :   0.8007 B(  3-S ,  4-C ) :   0.9072
B(  4-C ,  5-C ) :   1.4489 B(  4-C , 24-H ) :  -0.1464 B(  4-C , 25-H ) :   1.1668
B(  5-C ,  6-S ) :   0.9253 B(  5-C , 24-H ) :   1.1513 B(  5-C , 25-H ) :  -0.1563
B(  7-S ,  8-C ) :   0.9247 B(  8-C ,  9-C ) :   1.4365 B(  8-C , 26-H ) :  -0.1532
B(  8-C , 27-H ) :   1.1609 B(  9-C , 10-S ) :   0.9683 B(  9-C , 26-H ) :   1.1536
B(  9-C , 27-H ) :  -0.1495 B( 11-S , 12-C ) :   0.7457 B( 11-S , 16-C ) :   0.7251
B( 12-C , 13-H ) :   0.9646 B( 12-C , 14-H ) :   0.9526 B( 12-C , 15-H ) :   0.9046
B( 16-C , 17-H ) :   0.9241 B( 16-C , 18-H ) :   0.9479 B( 16-C , 19-H ) :   0.9211
B( 20-C , 21-H ) :   0.9376 B( 20-C , 22-H ) :   0.9453 B( 20-C , 23-H ) :   0.9358

FINAL SINGLE POINT ENERGY     -2484.213320695523

DIPOLE MOMENT
-------------
                                X             Y             Z
Electronic contribution:     27.43354      -2.58835      -3.81168
Nuclear contribution   :    -30.46451       1.96400       4.17914
                        -----------------------------------------
Total Dipole Moment    :     -3.03096      -0.62435       0.36746
                        -----------------------------------------
Magnitude (a.u.)       :      3.11634
Magnitude (Debye)      :      7.92111

Rotational constants in cm-1:     0.012781     0.009890     0.008747
Rotational constants in MHz :   383.176431   296.486696   262.216571

                             ****ORCA TERMINATED NORMALLY****
TOTAL RUN TIME: 0 days 0 hours 14 minutes 33 seconds 26 msec
