                         Program Version 4.2.0 -  RELEASE  -
|  1> #
|  2> # TMB08_C1 wB97M-V/Def2-TZVPPD
|  3> #
|  4> ! wb97m-v def2-tzvppd def2/jk grid4 nofinalgrid
|  5>
|  6> *xyz -1 1
|  7> O       -0.906881    0.014085    1.547895
|  8> Mo       0.376053    0.005978   -0.001071
|  9> O       -1.663172   -0.405524   -0.725982
| 10> S        1.900189   -1.271673    1.262125
| 11> C        2.414735   -2.638587    0.321741
| 12> C        1.961707   -2.798175   -0.938062
| 13> S        0.862636   -1.648766   -1.631530
| 14> S        1.558394    1.801029    0.984387
| 15> C        1.596911    3.127556   -0.137889
| 16> C        1.038164    3.004113   -1.358311
| 17> S        0.284978    1.511994   -1.829576
| 18> S       -2.828559   -0.609282    0.265517
| 19> C       -3.471491    1.031204    0.628759
| 20> H       -2.700467    1.513975    1.240208
| 21> H       -3.606824    1.576556   -0.316000
| 22> H       -4.419892    0.937929    1.179101
| 23> C       -4.093537   -1.069425   -0.932883
| 24> H       -3.796770   -2.046338   -1.337942
| 25> H       -5.068961   -1.152599   -0.429186
| 26> H       -4.123504   -0.329731   -1.745777
| 27> C       -0.609178    0.103975    2.901511
| 28> H       -0.060534    1.039756    3.130388
| 29> H       -1.547958    0.094647    3.495802
| 30> H        0.020434   -0.743420    3.237520
| 31> H        2.283338   -3.631534   -1.572173
| 32> H        3.135734   -3.322762    0.781228
| 33> H        1.069667    3.809818   -2.099793
| 34> H        2.115872    4.037362    0.182319
| 35> *
| 36>
| 37> %maxcore 5000
| 38>
| 39> %pal
| 40> nprocs = 24
| 41> end
| 42>
| 43>
| 44>                          ****END OF INPUT****

CARTESIAN COORDINATES (ANGSTROEM)
---------------------------------
  O     -0.906881    0.014085    1.547895
  Mo     0.376053    0.005978   -0.001071
  O     -1.663172   -0.405524   -0.725982
  S      1.900189   -1.271673    1.262125
  C      2.414735   -2.638587    0.321741
  C      1.961707   -2.798175   -0.938062
  S      0.862636   -1.648766   -1.631530
  S      1.558394    1.801029    0.984387
  C      1.596911    3.127556   -0.137889
  C      1.038164    3.004113   -1.358311
  S      0.284978    1.511994   -1.829576
  S     -2.828559   -0.609282    0.265517
  C     -3.471491    1.031204    0.628759
  H     -2.700467    1.513975    1.240208
  H     -3.606824    1.576556   -0.316000
  H     -4.419892    0.937929    1.179101
  C     -4.093537   -1.069425   -0.932883
  H     -3.796770   -2.046338   -1.337942
  H     -5.068961   -1.152599   -0.429186
  H     -4.123504   -0.329731   -1.745777
  C     -0.609178    0.103975    2.901511
  H     -0.060534    1.039756    3.130388
  H     -1.547958    0.094647    3.495802
  H      0.020434   -0.743420    3.237520
  H      2.283338   -3.631534   -1.572173
  H      3.135734   -3.322762    0.781228
  H      1.069667    3.809818   -2.099793
  H      2.115872    4.037362    0.182319

 Total Charge           Charge          ....   -1
 Multiplicity           Mult            ....    1
 Number of Electrons    NEL             ....  166
 Basis Dimension        Dim             ....  871

ORBITAL ENERGIES
----------------

  NO   OCC          E(Eh)            E(eV)
   0   2.0000     -89.204704     -2427.3834
   1   2.0000     -89.020944     -2422.3830
   2   2.0000     -89.019911     -2422.3549
   3   2.0000     -89.017021     -2422.2763
   4   2.0000     -89.016470     -2422.2613
   5   2.0000     -19.216837      -522.9167
   6   2.0000     -19.181432      -521.9533
   7   2.0000     -10.289616      -279.9947
   8   2.0000     -10.284020      -279.8424
   9   2.0000     -10.253857      -279.0216
  10   2.0000     -10.222089      -278.1572
  11   2.0000     -10.221948      -278.1533
  12   2.0000     -10.221137      -278.1313
  13   2.0000     -10.220621      -278.1172
  14   2.0000      -8.119830      -220.9518
  15   2.0000      -7.950094      -216.3331
  16   2.0000      -7.949009      -216.3035
  17   2.0000      -7.946284      -216.2294
  18   2.0000      -7.945673      -216.2128
  19   2.0000      -6.029155      -164.0616
  20   2.0000      -6.028677      -164.0486
  21   2.0000      -6.023354      -163.9038
  22   2.0000      -5.859477      -159.4445
  23   2.0000      -5.858463      -159.4169
  24   2.0000      -5.855746      -159.3430
  25   2.0000      -5.855618      -159.3395
  26   2.0000      -5.855147      -159.3266
  27   2.0000      -5.854474      -159.3083
  28   2.0000      -5.854367      -159.3054
  29   2.0000      -5.853491      -159.2816
  30   2.0000      -5.851427      -159.2254
  31   2.0000      -5.850938      -159.2121
  32   2.0000      -5.850743      -159.2068
  33   2.0000      -5.850394      -159.1973
  34   2.0000      -2.580197       -70.2107
  35   2.0000      -1.583411       -43.0868
  36   2.0000      -1.574199       -42.8361
  37   2.0000      -1.554255       -42.2934
  38   2.0000      -1.051613       -28.6158
  39   2.0000      -0.973881       -26.5007
  40   2.0000      -0.835314       -22.7301
  41   2.0000      -0.794822       -21.6282
  42   2.0000      -0.791908       -21.5489
  43   2.0000      -0.755500       -20.5582
  44   2.0000      -0.691895       -18.8274
  45   2.0000      -0.688846       -18.7445
  46   2.0000      -0.652629       -17.7589
  47   2.0000      -0.640406       -17.4263
  48   2.0000      -0.625118       -17.0103
  49   2.0000      -0.609021       -16.5723
  50   2.0000      -0.500286       -13.6135
  51   2.0000      -0.496394       -13.5076
  52   2.0000      -0.489874       -13.3301
  53   2.0000      -0.488361       -13.2890
  54   2.0000      -0.484380       -13.1806
  55   2.0000      -0.443380       -12.0650
  56   2.0000      -0.442600       -12.0437
  57   2.0000      -0.439830       -11.9684
  58   2.0000      -0.437419       -11.9028
  59   2.0000      -0.430459       -11.7134
  60   2.0000      -0.420759       -11.4494
  61   2.0000      -0.410480       -11.1697
  62   2.0000      -0.396938       -10.8012
  63   2.0000      -0.377968       -10.2850
  64   2.0000      -0.363653        -9.8955
  65   2.0000      -0.326134        -8.8746
  66   2.0000      -0.315130        -8.5751
  67   2.0000      -0.313057        -8.5187
  68   2.0000      -0.303464        -8.2577
  69   2.0000      -0.299390        -8.1468
  70   2.0000      -0.289220        -7.8701
  71   2.0000      -0.273311        -7.4372
  72   2.0000      -0.253819        -6.9068
  73   2.0000      -0.253174        -6.8892
  74   2.0000      -0.249150        -6.7797
  75   2.0000      -0.228487        -6.2175
  76   2.0000      -0.214933        -5.8486
  77   2.0000      -0.213491        -5.8094
  78   2.0000      -0.186058        -5.0629
  79   2.0000      -0.180686        -4.9167
  80   2.0000      -0.164989        -4.4896
  81   2.0000      -0.137981        -3.7546
  82   2.0000      -0.119647        -3.2557
  83   0.0000       0.084938         2.3113
  84   0.0000       0.110073         2.9952
  85   0.0000       0.113514         3.0889
  86   0.0000       0.120132         3.2690
  87   0.0000       0.128750         3.5035

MULLIKEN ATOMIC CHARGES
-----------------------
   0 O :   -0.019130
   1 Mo:   -0.560072
   2 O :   -0.363474
   3 S :   -0.161671
   4 C :   -0.050734
   5 C :   -0.112378
   6 S :   -0.137101
   7 S :   -0.137123
   8 C :   -0.087211
   9 C :   -0.096195
  10 S :   -0.147342
  11 S :    0.609263
  12 C :   -0.913600
  13 H :    0.252976
  14 H :    0.319704
  15 H :    0.343805
  16 C :   -0.971566
  17 H :    0.301236
  18 H :    0.324467
  19 H :    0.316388
  20 C :   -0.770971
  21 H :    0.221588
  22 H :    0.231147
  23 H :    0.220486
  24 H :    0.086091
  25 H :    0.105651
  26 H :    0.097817
  27 H :    0.097949
Sum of atomic charges:   -1.0000000

LOEWDIN ATOMIC CHARGES
----------------------
   0 O :   -0.548125
   1 Mo:    0.275292
   2 O :   -0.693659
   3 S :    0.552020
   4 C :   -0.600639
   5 C :   -0.616537
   6 S :    0.531367
   7 S :    0.543909
   8 C :   -0.605290
   9 C :   -0.616557
  10 S :    0.526943
  11 S :    0.971548
  12 C :   -0.000984
  13 H :   -0.044490
  14 H :   -0.026494
  15 H :   -0.034197
  16 C :   -0.035122
  17 H :   -0.036986
  18 H :   -0.040300
  19 H :   -0.032354
  20 C :   -0.084839
  21 H :   -0.040891
  22 H :   -0.008708
  23 H :   -0.042794
  24 H :   -0.072746
  25 H :   -0.072852
  26 H :   -0.073464
  27 H :   -0.073052

  Mayer bond orders larger than 0.100000
B(  0-O ,  1-Mo) :   0.5475 B(  0-O ,  2-O ) :  -0.1252 B(  0-O ,  3-S ) :  -0.1165
B(  0-O ,  7-S ) :  -0.1178 B(  0-O , 20-C ) :   0.8681 B(  1-Mo,  2-O ) :   0.3789
B(  1-Mo,  3-S ) :   1.4226 B(  1-Mo,  6-S ) :   1.3739 B(  1-Mo,  7-S ) :   1.3439
B(  1-Mo, 10-S ) :   1.3413 B(  2-O ,  6-S ) :  -0.1398 B(  2-O , 11-S ) :   1.3470
B(  3-S ,  4-C ) :   0.9080 B(  3-S ,  7-S ) :  -0.1372 B(  4-C ,  5-C ) :   1.4424
B(  4-C , 24-H ) :  -0.1473 B(  4-C , 25-H ) :   1.1461 B(  5-C ,  6-S ) :   0.9518
B(  5-C , 24-H ) :   1.1609 B(  5-C , 25-H ) :  -0.1404 B(  7-S ,  8-C ) :   0.9226
B(  8-C ,  9-C ) :   1.4521 B(  8-C , 26-H ) :  -0.1404 B(  8-C , 27-H ) :   1.1593
B(  9-C , 10-S ) :   0.9568 B(  9-C , 26-H ) :   1.1484 B(  9-C , 27-H ) :  -0.1456
B( 11-S , 12-C ) :   0.8322 B( 11-S , 16-C ) :   0.6836 B( 12-C , 13-H ) :   0.9390
B( 12-C , 14-H ) :   0.9024 B( 12-C , 15-H ) :   0.9147 B( 16-C , 17-H ) :   0.9558
B( 16-C , 18-H ) :   0.9209 B( 16-C , 19-H ) :   0.9247 B( 20-C , 21-H ) :   0.9529
B( 20-C , 22-H ) :   0.9580 B( 20-C , 23-H ) :   0.9495

FINAL SINGLE POINT ENERGY     -2484.246205841439

DIPOLE MOMENT
-------------
                                X             Y             Z
Electronic contribution:     33.54989      -1.20348      -4.14647
Nuclear contribution   :    -37.01048       1.06082       4.72052
                        -----------------------------------------
Total Dipole Moment    :     -3.46059      -0.14265       0.57405
                        -----------------------------------------
Magnitude (a.u.)       :      3.51078
Magnitude (Debye)      :      8.92370

Rotational constants in cm-1:     0.012467     0.009914     0.008398
Rotational constants in MHz :   373.762122   297.203486   251.777416

                             ****ORCA TERMINATED NORMALLY****
TOTAL RUN TIME: 0 days 0 hours 15 minutes 53 seconds 912 msec
