                         Program Version 4.2.0 -  RELEASE  -
|  1> #
|  2> # TMB01_R1 wB97M-V/Def2-TZVPPD
|  3> #
|  4> ! wb97m-v def2-tzvppd def2/jk grid4 nofinalgrid
|  5>
|  6> *xyz 0 1
|  7> Zr      -0.000671    0.112924   -0.223454
|  8> C       -2.181938   -0.834851   -1.042825
|  9> C       -1.643164   -1.771750   -0.135830
| 10> C       -2.502306    0.332733   -0.316676
| 11> H       -1.308937   -2.768103   -0.380464
| 12> C       -1.636664   -1.184419    1.151214
| 13> H       -2.895434    1.248967   -0.729119
| 14> C       -2.175001    0.113493    1.036510
| 15> H       -1.306352   -1.655857    2.064126
| 16> H       -2.282924    0.831022    1.835850
| 17> C        1.600796   -1.794999   -0.006343
| 18> C        2.125532   -0.971960   -1.023204
| 19> C        1.653632   -1.076274    1.213076
| 20> H        2.228565   -1.232630   -2.063673
| 21> C        2.505388    0.254502   -0.432287
| 22> H        1.350619   -1.442345    2.182051
| 23> C        2.228391    0.183709    0.945544
| 24> H        2.903936    1.111956   -0.952399
| 25> H        2.382975    0.976423    1.661482
| 26> Cl       0.011968    2.512474    0.074703
| 27> H       -0.001250   -0.010619   -2.053074
| 28> H       -2.330784   -0.986753   -2.099038
| 29> H        1.234974   -2.802168   -0.132604
| 30> *
| 31>
| 32> %maxcore 5000
| 33>
| 34> %pal
| 35> nprocs = 24
| 36> end
| 37>
| 38>
| 39>                          ****END OF INPUT****

CARTESIAN COORDINATES (ANGSTROEM)
---------------------------------
  Zr    -0.000671    0.112924   -0.223454
  C     -2.181938   -0.834851   -1.042825
  C     -1.643164   -1.771750   -0.135830
  C     -2.502306    0.332733   -0.316676
  H     -1.308937   -2.768103   -0.380464
  C     -1.636664   -1.184419    1.151214
  H     -2.895434    1.248967   -0.729119
  C     -2.175001    0.113493    1.036510
  H     -1.306352   -1.655857    2.064126
  H     -2.282924    0.831022    1.835850
  C      1.600796   -1.794999   -0.006343
  C      2.125532   -0.971960   -1.023204
  C      1.653632   -1.076274    1.213076
  H      2.228565   -1.232630   -2.063673
  C      2.505388    0.254502   -0.432287
  H      1.350619   -1.442345    2.182051
  C      2.228391    0.183709    0.945544
  H      2.903936    1.111956   -0.952399
  H      2.382975    0.976423    1.661482
  Cl     0.011968    2.512474    0.074703
  H     -0.001250   -0.010619   -2.053074
  H     -2.330784   -0.986753   -2.099038
  H      1.234974   -2.802168   -0.132604

 Total Charge           Charge          ....    0
 Multiplicity           Mult            ....    1
 Number of Electrons    NEL             ....  100
 Basis Dimension        Dim             ....  664

ORBITAL ENERGIES
----------------

  NO   OCC          E(Eh)            E(eV)
   0   2.0000    -101.819286     -2770.6436
   1   2.0000     -10.369188      -282.1599
   2   2.0000     -10.368527      -282.1420
   3   2.0000     -10.367827      -282.1229
   4   2.0000     -10.367691      -282.1192
   5   2.0000     -10.366882      -282.0972
   6   2.0000     -10.366513      -282.0872
   7   2.0000     -10.365905      -282.0706
   8   2.0000     -10.365568      -282.0614
   9   2.0000     -10.361372      -281.9473
  10   2.0000     -10.361133      -281.9408
  11   2.0000      -9.593582      -261.0546
  12   2.0000      -7.293523      -198.4669
  13   2.0000      -7.292755      -198.4459
  14   2.0000      -7.291589      -198.4142
  15   2.0000      -2.256847       -61.4119
  16   2.0000      -1.390242       -37.8304
  17   2.0000      -1.387202       -37.7477
  18   2.0000      -1.378520       -37.5114
  19   2.0000      -1.029499       -28.0141
  20   2.0000      -1.017915       -27.6989
  21   2.0000      -0.880983       -23.9728
  22   2.0000      -0.851658       -23.1748
  23   2.0000      -0.850567       -23.1451
  24   2.0000      -0.849430       -23.1142
  25   2.0000      -0.845990       -23.0206
  26   2.0000      -0.678789       -18.4708
  27   2.0000      -0.673979       -18.3399
  28   2.0000      -0.669534       -18.2189
  29   2.0000      -0.669145       -18.2083
  30   2.0000      -0.661921       -18.0118
  31   2.0000      -0.653979       -17.7957
  32   2.0000      -0.542113       -14.7516
  33   2.0000      -0.517849       -14.0914
  34   2.0000      -0.517019       -14.0688
  35   2.0000      -0.514563       -14.0020
  36   2.0000      -0.514376       -13.9969
  37   2.0000      -0.498481       -13.5644
  38   2.0000      -0.497850       -13.5472
  39   2.0000      -0.496390       -13.5075
  40   2.0000      -0.493150       -13.4193
  41   2.0000      -0.492862       -13.4115
  42   2.0000      -0.423755       -11.5310
  43   2.0000      -0.410108       -11.1596
  44   2.0000      -0.398503       -10.8438
  45   2.0000      -0.376071       -10.2334
  46   2.0000      -0.368585       -10.0297
  47   2.0000      -0.363991        -9.9047
  48   2.0000      -0.345514        -9.4019
  49   2.0000      -0.332391        -9.0448
  50   0.0000       0.013638         0.3711
  51   0.0000       0.026480         0.7205
  52   0.0000       0.035581         0.9682
  53   0.0000       0.039163         1.0657
  54   0.0000       0.043305         1.1784

MULLIKEN ATOMIC CHARGES
-----------------------
   0 Zr:    0.038097
   1 C :   -0.070021
   2 C :   -0.193455
   3 C :   -0.206498
   4 H :    0.296924
   5 C :   -0.357549
   6 H :    0.208407
   7 C :   -0.163306
   8 H :    0.299540
   9 H :    0.187015
  10 C :   -0.132804
  11 C :   -0.095244
  12 C :   -0.392251
  13 H :    0.224160
  14 C :   -0.210508
  15 H :    0.276782
  16 C :   -0.164953
  17 H :    0.189927
  18 H :    0.209671
  19 Cl:   -0.397336
  20 H :   -0.137988
  21 H :    0.252529
  22 H :    0.338861
Sum of atomic charges:    0.0000000

LOEWDIN ATOMIC CHARGES
----------------------
   0 Zr:    0.393676
   1 C :   -0.069486
   2 C :   -0.058611
   3 C :   -0.076333
   4 H :    0.007328
   5 C :   -0.053638
   6 H :    0.007667
   7 C :   -0.063407
   8 H :    0.008253
   9 H :    0.008614
  10 C :   -0.057983
  11 C :   -0.067905
  12 C :   -0.054982
  13 H :    0.001481
  14 C :   -0.072404
  15 H :    0.007396
  16 C :   -0.068678
  17 H :    0.010041
  18 H :    0.006295
  19 Cl:    0.194107
  20 H :   -0.009782
  21 H :    0.001005
  22 H :    0.007348

  Mayer bond orders larger than 0.100000
B(  0-Zr,  1-C ) :   0.2543 B(  0-Zr,  2-C ) :   0.3208 B(  0-Zr,  3-C ) :   0.4270
B(  0-Zr,  5-C ) :   0.4103 B(  0-Zr,  7-C ) :   0.2767 B(  0-Zr, 10-C ) :   0.2722
B(  0-Zr, 11-C ) :   0.2344 B(  0-Zr, 12-C ) :   0.4581 B(  0-Zr, 14-C ) :   0.4275
B(  0-Zr, 16-C ) :   0.2868 B(  0-Zr, 19-Cl) :   1.0475 B(  0-Zr, 20-H ) :   0.9544
B(  1-C ,  2-C ) :   1.1110 B(  1-C ,  3-C ) :   1.0358 B(  1-C , 21-H ) :   0.9886
B(  2-C ,  4-H ) :   0.9360 B(  2-C ,  5-C ) :   1.1290 B(  2-C ,  7-C ) :  -0.1154
B(  3-C ,  6-H ) :   1.0260 B(  3-C ,  7-C ) :   1.0888 B(  5-C ,  7-C ) :   1.0537
B(  5-C ,  8-H ) :   0.9499 B(  7-C ,  9-H ) :   1.0795 B( 10-C , 11-C ) :   1.1167
B( 10-C , 12-C ) :   1.1135 B( 10-C , 16-C ) :  -0.1394 B( 10-C , 22-H ) :   0.8940
B( 11-C , 13-H ) :   1.0071 B( 11-C , 14-C ) :   1.0648 B( 12-C , 14-C ) :  -0.1063
B( 12-C , 15-H ) :   0.9768 B( 12-C , 16-C ) :   1.0264 B( 14-C , 16-C ) :   1.1202
B( 14-C , 17-H ) :   1.0314 B( 16-C , 18-H ) :   1.0642

FINAL SINGLE POINT ENERGY      -894.979745356345

DIPOLE MOMENT
-------------
                                X             Y             Z
Electronic contribution:     -0.01675      13.06398     -12.57803
Nuclear contribution   :      0.01059     -14.41688      13.08524
                        -----------------------------------------
Total Dipole Moment    :     -0.00616      -1.35290       0.50722
                        -----------------------------------------
Magnitude (a.u.)       :      1.44487
Magnitude (Debye)      :      3.67256

Rotational constants in cm-1:     0.033538     0.025044     0.018059
Rotational constants in MHz :  1005.445647   750.792016   541.402542

                             ****ORCA TERMINATED NORMALLY****
TOTAL RUN TIME: 0 days 0 hours 7 minutes 49 seconds 267 msec
