                         Program Version 4.2.0 -  RELEASE  -
|  1> #
|  2> # TMB06_C1 wB97M-V/Def2-TZVPPD
|  3> #
|  4> ! wb97m-v def2-tzvppd def2/jk grid4 nofinalgrid
|  5>
|  6> *xyz -2 1
|  7> C       -4.922177    0.231539    2.107663
|  8> C       -4.446966   -0.260950    0.727306
|  9> O       -4.786048   -1.445661    0.381045
| 10> O       -3.774664    0.534657    0.034272
| 11> C        2.853834    2.539483    0.111094
| 12> S        1.699014    2.002949   -1.213407
| 13> C        2.621388   -0.654255    2.558361
| 14> S        1.079319    0.109893    2.243750
| 15> C        3.475179   -0.966107    1.545638
| 16> S        3.017258   -0.732048   -0.112289
| 17> C       -0.719852   -2.060810   -2.434513
| 18> S        0.476784   -0.759924   -2.482057
| 19> C       -1.165423   -2.576996   -1.263023
| 20> S       -0.426778   -2.115489    0.280596
| 21> W        0.581769    0.074169   -0.056710
| 22> O       -3.686516    3.100880   -0.970074
| 23> C       -0.958024    1.126222    0.768552
| 24> C       -1.050846    1.201510   -0.527136
| 25> H       -4.399031   -0.338057    2.886550
| 26> H       -4.651123    1.285347    2.215183
| 27> H        2.286624    2.922259    0.966567
| 28> H        3.439558    1.684807    0.443645
| 29> H       -3.719098    2.271105   -0.448699
| 30> H       -4.432659    3.004669   -1.574445
| 31> H       -1.423366    1.443209    1.691261
| 32> H       -1.628538    1.662411   -1.315772
| 33> H       -1.080680   -2.444086   -3.386693
| 34> H       -2.006521   -3.265324   -1.212989
| 35> H        3.558044    3.288012   -0.266819
| 36> H        2.852091   -0.869929    3.599516
| 37> H        4.480661   -1.317935    1.766923
| 38> H       -6.001258    0.102048    2.241238
| 39> *
| 40>
| 41> %maxcore 5000
| 42>
| 43> %pal
| 44> nprocs = 24
| 45> end
| 46>
| 47>
| 48>                          ****END OF INPUT****

CARTESIAN COORDINATES (ANGSTROEM)
---------------------------------
  C     -4.922177    0.231539    2.107663
  C     -4.446966   -0.260950    0.727306
  O     -4.786048   -1.445661    0.381045
  O     -3.774664    0.534657    0.034272
  C      2.853834    2.539483    0.111094
  S      1.699014    2.002949   -1.213407
  C      2.621388   -0.654255    2.558361
  S      1.079319    0.109893    2.243750
  C      3.475179   -0.966107    1.545638
  S      3.017258   -0.732048   -0.112289
  C     -0.719852   -2.060810   -2.434513
  S      0.476784   -0.759924   -2.482057
  C     -1.165423   -2.576996   -1.263023
  S     -0.426778   -2.115489    0.280596
  W      0.581769    0.074169   -0.056710
  O     -3.686516    3.100880   -0.970074
  C     -0.958024    1.126222    0.768552
  C     -1.050846    1.201510   -0.527136
  H     -4.399031   -0.338057    2.886550
  H     -4.651123    1.285347    2.215183
  H      2.286624    2.922259    0.966567
  H      3.439558    1.684807    0.443645
  H     -3.719098    2.271105   -0.448699
  H     -4.432659    3.004669   -1.574445
  H     -1.423366    1.443209    1.691261
  H     -1.628538    1.662411   -1.315772
  H     -1.080680   -2.444086   -3.386693
  H     -2.006521   -3.265324   -1.212989
  H      3.558044    3.288012   -0.266819
  H      2.852091   -0.869929    3.599516
  H      4.480661   -1.317935    1.766923
  H     -6.001258    0.102048    2.241238

 Total Charge           Charge          ....   -2
 Multiplicity           Mult            ....    1
 Number of Electrons    NEL             ....  188
 Basis Dimension        Dim             .... 1005

ORBITAL ENERGIES
----------------

  NO   OCC          E(Eh)            E(eV)
   0   2.0000     -88.981750     -2421.3165
   1   2.0000     -88.952963     -2420.5332
   2   2.0000     -88.941743     -2420.2279
   3   2.0000     -88.933671     -2420.0082
   4   2.0000     -88.929467     -2419.8938
   5   2.0000     -19.106546      -519.9156
   6   2.0000     -19.031870      -517.8835
   7   2.0000     -19.018225      -517.5122
   8   2.0000     -10.191761      -277.3319
   9   2.0000     -10.178178      -276.9623
  10   2.0000     -10.165755      -276.6242
  11   2.0000     -10.150307      -276.2039
  12   2.0000     -10.144471      -276.0451
  13   2.0000     -10.139749      -275.9166
  14   2.0000     -10.136761      -275.8353
  15   2.0000     -10.134856      -275.7834
  16   2.0000     -10.116233      -275.2767
  17   2.0000      -7.909743      -215.2350
  18   2.0000      -7.882044      -214.4813
  19   2.0000      -7.870647      -214.1712
  20   2.0000      -7.862501      -213.9495
  21   2.0000      -7.858000      -213.8270
  22   2.0000      -5.818942      -158.3415
  23   2.0000      -5.815863      -158.2577
  24   2.0000      -5.813838      -158.2026
  25   2.0000      -5.791680      -157.5996
  26   2.0000      -5.787347      -157.4817
  27   2.0000      -5.786293      -157.4530
  28   2.0000      -5.780202      -157.2873
  29   2.0000      -5.776369      -157.1830
  30   2.0000      -5.774679      -157.1370
  31   2.0000      -5.772768      -157.0850
  32   2.0000      -5.768586      -156.9712
  33   2.0000      -5.767910      -156.9528
  34   2.0000      -5.765399      -156.8845
  35   2.0000      -5.763756      -156.8398
  36   2.0000      -5.761728      -156.7846
  37   2.0000      -2.924631       -79.5833
  38   2.0000      -1.562401       -42.5151
  39   2.0000      -1.558866       -42.4189
  40   2.0000      -1.552157       -42.2363
  41   2.0000      -0.911071       -24.7915
  42   2.0000      -0.901628       -24.5346
  43   2.0000      -0.808577       -22.0025
  44   2.0000      -0.738437       -20.0939
  45   2.0000      -0.701050       -19.0766
  46   2.0000      -0.672464       -18.2987
  47   2.0000      -0.657930       -17.9032
  48   2.0000      -0.637871       -17.3574
  49   2.0000      -0.613253       -16.6875
  50   2.0000      -0.601350       -16.3636
  51   2.0000      -0.565860       -15.3978
  52   2.0000      -0.535093       -14.5606
  53   2.0000      -0.509819       -13.8729
  54   2.0000      -0.455516       -12.3952
  55   2.0000      -0.435774       -11.8580
  56   2.0000      -0.414568       -11.2810
  57   2.0000      -0.409592       -11.1456
  58   2.0000      -0.384351       -10.4587
  59   2.0000      -0.375118       -10.2075
  60   2.0000      -0.369391       -10.0516
  61   2.0000      -0.350694        -9.5429
  62   2.0000      -0.328146        -8.9293
  63   2.0000      -0.318436        -8.6651
  64   2.0000      -0.315094        -8.5741
  65   2.0000      -0.312863        -8.5134
  66   2.0000      -0.306648        -8.3443
  67   2.0000      -0.303199        -8.2505
  68   2.0000      -0.273070        -7.4306
  69   2.0000      -0.270666        -7.3652
  70   2.0000      -0.248683        -6.7670
  71   2.0000      -0.247342        -6.7305
  72   2.0000      -0.241355        -6.5676
  73   2.0000      -0.237579        -6.4649
  74   2.0000      -0.225952        -6.1485
  75   2.0000      -0.223322        -6.0769
  76   2.0000      -0.212765        -5.7896
  77   2.0000      -0.207760        -5.6534
  78   2.0000      -0.202021        -5.4973
  79   2.0000      -0.192294        -5.2326
  80   2.0000      -0.186631        -5.0785
  81   2.0000      -0.174668        -4.7530
  82   2.0000      -0.156396        -4.2558
  83   2.0000      -0.153195        -4.1687
  84   2.0000      -0.137897        -3.7524
  85   2.0000      -0.122586        -3.3357
  86   2.0000      -0.119687        -3.2568
  87   2.0000      -0.104706        -2.8492
  88   2.0000      -0.103177        -2.8076
  89   2.0000      -0.094936        -2.5833
  90   2.0000      -0.088001        -2.3946
  91   2.0000      -0.083865        -2.2821
  92   2.0000      -0.077055        -2.0968
  93   2.0000      -0.042534        -1.1574
  94   0.0000       0.172108         4.6833
  95   0.0000       0.179395         4.8816
  96   0.0000       0.185201         5.0396
  97   0.0000       0.189747         5.1633
  98   0.0000       0.194513         5.2930

MULLIKEN ATOMIC CHARGES
-----------------------
   0 C :   -0.871009
   1 C :    0.565570
   2 O :   -0.784680
   3 O :   -0.610209
   4 C :   -0.515964
   5 S :   -0.292890
   6 C :   -0.035985
   7 S :   -0.230828
   8 C :   -0.179308
   9 S :   -0.235377
  10 C :   -0.079733
  11 S :   -0.284301
  12 C :   -0.073287
  13 S :   -0.227163
  14 W :   -0.385455
  15 O :   -0.524409
  16 C :    0.108469
  17 C :   -0.008340
  18 H :    0.201315
  19 H :    0.264267
  20 H :    0.198664
  21 H :    0.134605
  22 H :    0.396340
  23 H :    0.121091
  24 H :    0.233826
  25 H :    0.094269
  26 H :    0.109747
  27 H :    0.116066
  28 H :    0.278542
  29 H :    0.121733
  30 H :    0.119743
  31 H :    0.274692
Sum of atomic charges:   -2.0000000

LOEWDIN ATOMIC CHARGES
----------------------
   0 C :    0.157952
   1 C :   -0.682176
   2 O :   -0.117265
   3 O :   -0.065214
   4 C :   -0.330906
   5 S :    0.422362
   6 C :   -0.550927
   7 S :    0.629048
   8 C :   -0.588207
   9 S :    0.513829
  10 C :   -0.587191
  11 S :    0.445801
  12 C :   -0.546935
  13 S :    0.531144
  14 W :    0.123971
  15 O :    0.369925
  16 C :   -0.206009
  17 C :   -0.171999
  18 H :   -0.026346
  19 H :   -0.034036
  20 H :   -0.086128
  21 H :   -0.154525
  22 H :   -0.285824
  23 H :   -0.227218
  24 H :   -0.050173
  25 H :   -0.044123
  26 H :   -0.082633
  27 H :   -0.070620
  28 H :   -0.089084
  29 H :   -0.085713
  30 H :   -0.075510
  31 H :   -0.035267

  Mayer bond orders larger than 0.100000
B(  0-C ,  1-C ) :   0.7434 B(  0-C , 18-H ) :   1.0317 B(  0-C , 19-H ) :   0.9556
B(  0-C , 31-H ) :   0.9764 B(  1-C ,  2-O ) :   1.4758 B(  1-C ,  3-O ) :   1.5147
B(  4-C ,  5-S ) :   0.8204 B(  4-C ,  9-S ) :  -0.1052 B(  4-C , 20-H ) :   1.0305
B(  4-C , 21-H ) :   0.9011 B(  4-C , 28-H ) :   0.9566 B(  5-S , 14-W ) :   1.2425
B(  5-S , 16-C ) :  -0.1749 B(  6-C ,  7-S ) :   0.8365 B(  6-C ,  8-C ) :   1.2629
B(  6-C , 29-H ) :   1.1388 B(  6-C , 30-H ) :  -0.1316 B(  7-S ,  8-C ) :   0.1253
B(  7-S , 14-W ) :   1.3467 B(  7-S , 16-C ) :  -0.1090 B(  8-C ,  9-S ) :   1.0635
B(  8-C , 29-H ) :  -0.1285 B(  8-C , 30-H ) :   1.1546 B(  9-S , 14-W ) :   0.9891
B( 10-C , 11-S ) :   0.9935 B( 10-C , 12-C ) :   1.3027 B( 10-C , 26-H ) :   1.1362
B( 10-C , 27-H ) :  -0.1299 B( 11-S , 14-W ) :   1.0701 B( 11-S , 17-C ) :  -0.1715
B( 12-C , 13-S ) :   0.9373 B( 12-C , 26-H ) :  -0.1158 B( 12-C , 27-H ) :   1.1525
B( 13-S , 14-W ) :   1.2292 B( 14-W , 16-C ) :   0.9847 B( 14-W , 17-C ) :   1.0416
B( 15-O , 22-H ) :   0.7407 B( 15-O , 23-H ) :   1.0619 B( 16-C , 17-C ) :   1.4275
B( 16-C , 24-H ) :   0.8960 B( 17-C , 25-H ) :   0.9884

FINAL SINGLE POINT ENERGY     -2635.171134385540

DIPOLE MOMENT
-------------
                                X             Y             Z
Electronic contribution:     92.91356       4.38606     -11.78567
Nuclear contribution   :    -89.05733      -3.76163      13.00017
                        -----------------------------------------
Total Dipole Moment    :      3.85624       0.62443       1.21449
                        -----------------------------------------
Magnitude (a.u.)       :      4.09090
Magnitude (Debye)      :     10.39825

Rotational constants in cm-1:     0.010716     0.005373     0.005252
Rotational constants in MHz :   321.254043   161.065395   157.440366

                             ****ORCA TERMINATED NORMALLY****
TOTAL RUN TIME: 0 days 0 hours 22 minutes 8 seconds 726 msec
