                         Program Version 4.2.0 -  RELEASE  -
|  1> #
|  2> # TMB01_T1 wB97M-V/Def2-TZVPPD
|  3> #
|  4> ! wb97m-v def2-tzvppd def2/jk grid4 nofinalgrid
|  5>
|  6> *xyz 0 1
|  7> Zr       0.019829   -0.026802    0.120636
|  8> C        2.239874   -0.374444    1.245397
|  9> C        1.976783   -1.521588    0.474285
| 10> C        2.416443    0.711808    0.354001
| 11> H        1.819060   -2.516470    0.858019
| 12> C        2.001810   -1.148643   -0.895658
| 13> H        2.608112    1.737773    0.630719
| 14> C        2.298913    0.223349   -0.961356
| 15> H        1.861573   -1.806504   -1.739184
| 16> H        2.356666    0.814844   -1.859655
| 17> C       -1.057190   -2.235373    0.523484
| 18> C       -1.856346   -1.294393    1.201077
| 19> C       -1.167009   -1.987955   -0.868757
| 20> H       -2.005770   -1.236737    2.266001
| 21> C       -2.451652   -0.457501    0.227470
| 22> H       -0.689853   -2.550694   -1.656100
| 23> C       -2.043033   -0.903228   -1.046149
| 24> H       -3.108339    0.375352    0.426641
| 25> H       -2.305042   -0.449162   -1.987488
| 26> Cl      -0.345437    1.661478   -1.736503
| 27> C       -1.133945    2.698822    1.012771
| 28> C       -0.495222    2.377308    1.980322
| 29> H       -1.676629    3.004729    0.150271
| 30> H       -0.029188    0.104247    1.943645
| 31> H        0.041631    2.180985    2.876056
| 32> H        2.316195   -0.336400    2.319120
| 33> H       -0.485725   -3.023975    0.985751
| 34> *
| 35>
| 36> %maxcore 5000
| 37>
| 38> %pal
| 39> nprocs = 24
| 40> end
| 41>
| 42>
| 43>                          ****END OF INPUT****

CARTESIAN COORDINATES (ANGSTROEM)
---------------------------------
  Zr     0.019829   -0.026802    0.120636
  C      2.239874   -0.374444    1.245397
  C      1.976783   -1.521588    0.474285
  C      2.416443    0.711808    0.354001
  H      1.819060   -2.516470    0.858019
  C      2.001810   -1.148643   -0.895658
  H      2.608112    1.737773    0.630719
  C      2.298913    0.223349   -0.961356
  H      1.861573   -1.806504   -1.739184
  H      2.356666    0.814844   -1.859655
  C     -1.057190   -2.235373    0.523484
  C     -1.856346   -1.294393    1.201077
  C     -1.167009   -1.987955   -0.868757
  H     -2.005770   -1.236737    2.266001
  C     -2.451652   -0.457501    0.227470
  H     -0.689853   -2.550694   -1.656100
  C     -2.043033   -0.903228   -1.046149
  H     -3.108339    0.375352    0.426641
  H     -2.305042   -0.449162   -1.987488
  Cl    -0.345437    1.661478   -1.736503
  C     -1.133945    2.698822    1.012771
  C     -0.495222    2.377308    1.980322
  H     -1.676629    3.004729    0.150271
  H     -0.029188    0.104247    1.943645
  H      0.041631    2.180985    2.876056
  H      2.316195   -0.336400    2.319120
  H     -0.485725   -3.023975    0.985751

 Total Charge           Charge          ....    0
 Multiplicity           Mult            ....    1
 Number of Electrons    NEL             ....  114
 Basis Dimension        Dim             ....  772

ORBITAL ENERGIES
----------------

  NO   OCC          E(Eh)            E(eV)
   0   2.0000    -101.795836     -2770.0055
   1   2.0000     -10.369496      -282.1683
   2   2.0000     -10.365633      -282.0632
   3   2.0000     -10.364681      -282.0373
   4   2.0000     -10.364516      -282.0328
   5   2.0000     -10.361633      -281.9544
   6   2.0000     -10.361091      -281.9396
   7   2.0000     -10.360385      -281.9204
   8   2.0000     -10.360248      -281.9167
   9   2.0000     -10.360008      -281.9102
  10   2.0000     -10.359703      -281.9018
  11   2.0000     -10.357158      -281.8326
  12   2.0000     -10.357052      -281.8297
  13   2.0000      -9.570253      -260.4198
  14   2.0000      -7.270753      -197.8472
  15   2.0000      -7.268677      -197.7907
  16   2.0000      -7.268463      -197.7849
  17   2.0000      -2.251916       -61.2777
  18   2.0000      -1.386107       -37.7179
  19   2.0000      -1.381207       -37.5846
  20   2.0000      -1.372544       -37.3488
  21   2.0000      -1.024006       -27.8646
  22   2.0000      -1.012697       -27.5569
  23   2.0000      -0.897013       -24.4090
  24   2.0000      -0.861719       -23.4486
  25   2.0000      -0.846489       -23.0341
  26   2.0000      -0.845594       -23.0098
  27   2.0000      -0.844223       -22.9725
  28   2.0000      -0.839737       -22.8504
  29   2.0000      -0.689946       -18.7744
  30   2.0000      -0.674533       -18.3550
  31   2.0000      -0.669474       -18.2173
  32   2.0000      -0.664443       -18.0804
  33   2.0000      -0.663234       -18.0475
  34   2.0000      -0.657365       -17.8878
  35   2.0000      -0.648455       -17.6454
  36   2.0000      -0.614206       -16.7134
  37   2.0000      -0.538118       -14.6429
  38   2.0000      -0.513570       -13.9749
  39   2.0000      -0.512796       -13.9539
  40   2.0000      -0.510501       -13.8914
  41   2.0000      -0.508464       -13.8360
  42   2.0000      -0.494278       -13.4500
  43   2.0000      -0.491623       -13.3777
  44   2.0000      -0.491253       -13.3677
  45   2.0000      -0.488876       -13.3030
  46   2.0000      -0.486768       -13.2456
  47   2.0000      -0.438474       -11.9315
  48   2.0000      -0.418547       -11.3893
  49   2.0000      -0.400256       -10.8915
  50   2.0000      -0.393698       -10.7131
  51   2.0000      -0.378674       -10.3042
  52   2.0000      -0.368422       -10.0253
  53   2.0000      -0.367202        -9.9921
  54   2.0000      -0.350135        -9.5277
  55   2.0000      -0.325060        -8.8453
  56   2.0000      -0.315410        -8.5827
  57   0.0000       0.025857         0.7036
  58   0.0000       0.033220         0.9039
  59   0.0000       0.035496         0.9659
  60   0.0000       0.038191         1.0392
  61   0.0000       0.041017         1.1161

MULLIKEN ATOMIC CHARGES
-----------------------
   0 Zr:   -0.754163
   1 C :   -0.112026
   2 C :   -0.142960
   3 C :   -0.183140
   4 H :    0.385567
   5 C :   -0.236738
   6 H :    0.308266
   7 C :   -0.376673
   8 H :    0.296928
   9 H :    0.333626
  10 C :   -0.286862
  11 C :   -0.176671
  12 C :   -0.177636
  13 H :    0.321938
  14 C :   -0.217660
  15 H :    0.318519
  16 C :   -0.265545
  17 H :    0.413978
  18 H :    0.271097
  19 Cl:   -0.467694
  20 C :   -0.190321
  21 C :   -0.246473
  22 H :    0.317584
  23 H :   -0.055613
  24 H :    0.272138
  25 H :    0.308663
  26 H :    0.341872
Sum of atomic charges:   -0.0000000

LOEWDIN ATOMIC CHARGES
----------------------
   0 Zr:    0.482282
   1 C :   -0.062831
   2 C :   -0.057037
   3 C :   -0.052817
   4 H :    0.005153
   5 C :   -0.047909
   6 H :    0.011661
   7 C :   -0.085032
   8 H :    0.009887
   9 H :   -0.011629
  10 C :   -0.058045
  11 C :   -0.058785
  12 C :   -0.046333
  13 H :    0.003206
  14 C :   -0.055537
  15 H :    0.010478
  16 C :   -0.077439
  17 H :    0.008402
  18 H :   -0.008251
  19 Cl:    0.153646
  20 C :    0.046091
  21 C :    0.072718
  22 H :   -0.107236
  23 H :   -0.005122
  24 H :   -0.076599
  25 H :    0.001961
  26 H :    0.005116

  Mayer bond orders larger than 0.100000
B(  0-Zr,  1-C ) :   0.2431 B(  0-Zr,  2-C ) :   0.3798 B(  0-Zr,  3-C ) :   0.4931
B(  0-Zr,  5-C ) :   0.5136 B(  0-Zr,  7-C ) :   0.3635 B(  0-Zr, 10-C ) :   0.4989
B(  0-Zr, 11-C ) :   0.2821 B(  0-Zr, 12-C ) :   0.4359 B(  0-Zr, 14-C ) :   0.5093
B(  0-Zr, 16-C ) :   0.2601 B(  0-Zr, 19-Cl) :   0.8580 B(  0-Zr, 20-C ) :   0.3124
B(  0-Zr, 21-C ) :   0.1124 B(  0-Zr, 23-H ) :   1.0272 B(  1-C ,  2-C ) :   1.1735
B(  1-C ,  3-C ) :   1.0519 B(  1-C , 23-H ) :  -0.1045 B(  1-C , 25-H ) :   0.9356
B(  2-C ,  4-H ) :   0.8403 B(  2-C ,  5-C ) :   1.0426 B(  2-C ,  7-C ) :  -0.1210
B(  3-C ,  6-H ) :   0.9362 B(  3-C ,  7-C ) :   1.0623 B(  5-C ,  7-C ) :   1.0806
B(  5-C ,  8-H ) :   0.9517 B(  7-C ,  9-H ) :   0.9637 B(  7-C , 19-Cl) :   0.1514
B( 10-C , 11-C ) :   1.2028 B( 10-C , 12-C ) :   1.0535 B( 10-C , 26-H ) :   0.8882
B( 11-C , 13-H ) :   0.9323 B( 11-C , 14-C ) :   1.0672 B( 12-C , 15-H ) :   0.9238
B( 12-C , 16-C ) :   1.0753 B( 14-C , 16-C ) :   1.0949 B( 14-C , 17-H ) :   0.8340
B( 14-C , 19-Cl) :  -0.1329 B( 16-C , 18-H ) :   1.0205 B( 20-C , 21-C ) :   2.6500
B( 20-C , 22-H ) :   0.8626 B( 21-C , 24-H ) :   1.0076

FINAL SINGLE POINT ENERGY      -972.300476541586

DIPOLE MOMENT
-------------
                                X             Y             Z
Electronic contribution:      0.47912       2.13463       2.54119
Nuclear contribution   :     -0.31433      -2.93943      -1.59819
                        -----------------------------------------
Total Dipole Moment    :      0.16480      -0.80480       0.94300
                        -----------------------------------------
Magnitude (a.u.)       :      1.25065
Magnitude (Debye)      :      3.17889

Rotational constants in cm-1:     0.021527     0.019953     0.016159
Rotational constants in MHz :   645.375909   598.178243   484.447118

                             ****ORCA TERMINATED NORMALLY****
TOTAL RUN TIME: 0 days 0 hours 12 minutes 43 seconds 104 msec
