                         Program Version 4.2.0 -  RELEASE  -
|  1> #
|  2> # TMB10_C1 wB97M-V/Def2-TZVPPD
|  3> #
|  4> ! wb97m-v def2-tzvppd def2/jk grid4 nofinalgrid
|  5>
|  6> *xyz 0 1
|  7> Mo       0.133298    0.019814    0.066207
|  8> C       -1.075332   -1.355629   -0.909336
|  9> C       -2.072844    2.216315    0.675821
| 10> H       -2.495915    2.026095    1.680930
| 11> H       -2.910608    2.260759   -0.044542
| 12> H       -1.592380    3.211696    0.695601
| 13> C        3.010907   -1.316541   -0.054396
| 14> C        1.366704    2.705574   -0.540684
| 15> N       -1.143030    1.200231    0.316847
| 16> O        1.491405    1.304940   -0.439122
| 17> O        1.615447   -1.247555   -0.063202
| 18> H        3.367194   -2.025819   -0.825669
| 19> H        3.385726   -1.672276    0.926079
| 20> H        3.451946   -0.322838   -0.260301
| 21> H        2.294131    3.111318   -0.982908
| 22> H        1.229038    3.178184    0.450904
| 23> H        0.520365    2.998986   -1.190253
| 24> C       -0.462062   -1.067727    1.747714
| 25> C       -1.245054   -1.851214    0.615257
| 26> H        0.321659   -1.674412    2.211474
| 27> H       -1.131198   -0.604236    2.478956
| 28> H       -0.901967   -2.892720    0.638908
| 29> H       -2.316994   -1.775934    0.836451
| 30> C       -2.372818   -1.072037   -1.638655
| 31> H       -2.166926   -0.639290   -2.630957
| 32> H       -2.958163   -1.996472   -1.801781
| 33> H       -3.005382   -0.361002   -1.085358
| 34> H       -0.439666   -2.067375   -1.451890
| 35> *
| 36>
| 37> %maxcore 5000
| 38>
| 39> %pal
| 40> nprocs = 24
| 41> end
| 42>
| 43>
| 44>                          ****END OF INPUT****

CARTESIAN COORDINATES (ANGSTROEM)
---------------------------------
  Mo     0.133298    0.019814    0.066207
  C     -1.075332   -1.355629   -0.909336
  C     -2.072844    2.216315    0.675821
  H     -2.495915    2.026095    1.680930
  H     -2.910608    2.260759   -0.044542
  H     -1.592380    3.211696    0.695601
  C      3.010907   -1.316541   -0.054396
  C      1.366704    2.705574   -0.540684
  N     -1.143030    1.200231    0.316847
  O      1.491405    1.304940   -0.439122
  O      1.615447   -1.247555   -0.063202
  H      3.367194   -2.025819   -0.825669
  H      3.385726   -1.672276    0.926079
  H      3.451946   -0.322838   -0.260301
  H      2.294131    3.111318   -0.982908
  H      1.229038    3.178184    0.450904
  H      0.520365    2.998986   -1.190253
  C     -0.462062   -1.067727    1.747714
  C     -1.245054   -1.851214    0.615257
  H      0.321659   -1.674412    2.211474
  H     -1.131198   -0.604236    2.478956
  H     -0.901967   -2.892720    0.638908
  H     -2.316994   -1.775934    0.836451
  C     -2.372818   -1.072037   -1.638655
  H     -2.166926   -0.639290   -2.630957
  H     -2.958163   -1.996472   -1.801781
  H     -3.005382   -0.361002   -1.085358
  H     -0.439666   -2.067375   -1.451890

 Total Charge           Charge          ....    0
 Multiplicity           Mult            ....    1
 Number of Electrons    NEL             ....   96
 Basis Dimension        Dim             ....  721

ORBITAL ENERGIES
----------------

  NO   OCC          E(Eh)            E(eV)
   0   2.0000     -19.307134      -525.3738
   1   2.0000     -19.288942      -524.8788
   2   2.0000     -14.511020      -394.8649
   3   2.0000     -10.382960      -282.5347
   4   2.0000     -10.378256      -282.4067
   5   2.0000     -10.375368      -282.3281
   6   2.0000     -10.365011      -282.0463
   7   2.0000     -10.362651      -281.9821
   8   2.0000     -10.353090      -281.7219
   9   2.0000     -10.344345      -281.4839
  10   2.0000      -2.759114       -75.0793
  11   2.0000      -1.758574       -47.8532
  12   2.0000      -1.754721       -47.7484
  13   2.0000      -1.740448       -47.3600
  14   2.0000      -1.091708       -29.7069
  15   2.0000      -1.079408       -29.3722
  16   2.0000      -0.970737       -26.4151
  17   2.0000      -0.920182       -25.0394
  18   2.0000      -0.851000       -23.1569
  19   2.0000      -0.770889       -20.9770
  20   2.0000      -0.766459       -20.8564
  21   2.0000      -0.752878       -20.4869
  22   2.0000      -0.740180       -20.1413
  23   2.0000      -0.676067       -18.3967
  24   2.0000      -0.595120       -16.1940
  25   2.0000      -0.573765       -15.6130
  26   2.0000      -0.567205       -15.4344
  27   2.0000      -0.555764       -15.1231
  28   2.0000      -0.550435       -14.9781
  29   2.0000      -0.541271       -14.7287
  30   2.0000      -0.538870       -14.6634
  31   2.0000      -0.530001       -14.4221
  32   2.0000      -0.526167       -14.3177
  33   2.0000      -0.519700       -14.1418
  34   2.0000      -0.514142       -13.9905
  35   2.0000      -0.499563       -13.5938
  36   2.0000      -0.488754       -13.2997
  37   2.0000      -0.487197       -13.2573
  38   2.0000      -0.451308       -12.2807
  39   2.0000      -0.442759       -12.0481
  40   2.0000      -0.416300       -11.3281
  41   2.0000      -0.398447       -10.8423
  42   2.0000      -0.392543       -10.6816
  43   2.0000      -0.365891        -9.9564
  44   2.0000      -0.361218        -9.8292
  45   2.0000      -0.346265        -9.4223
  46   2.0000      -0.338149        -9.2015
  47   2.0000      -0.327245        -8.9048
  48   0.0000       0.018773         0.5108
  49   0.0000       0.028298         0.7700
  50   0.0000       0.028502         0.7756
  51   0.0000       0.039216         1.0671
  52   0.0000       0.045023         1.2251

MULLIKEN ATOMIC CHARGES
-----------------------
   0 Mo:    0.449589
   1 C :    0.390208
   2 C :   -0.680349
   3 H :    0.263369
   4 H :    0.260608
   5 H :    0.260958
   6 C :   -0.669168
   7 C :   -0.589181
   8 N :   -0.518448
   9 O :   -0.529085
  10 O :   -0.370076
  11 H :    0.216185
  12 H :    0.232622
  13 H :    0.217883
  14 H :    0.206329
  15 H :    0.227331
  16 H :    0.215763
  17 C :   -0.497553
  18 C :   -0.245448
  19 H :    0.281053
  20 H :    0.256060
  21 H :    0.339222
  22 H :    0.350519
  23 C :   -1.351474
  24 H :    0.291656
  25 H :    0.316426
  26 H :    0.236485
  27 H :    0.438518
Sum of atomic charges:   -0.0000000

LOEWDIN ATOMIC CHARGES
----------------------
   0 Mo:    1.209461
   1 C :   -0.215680
   2 C :    0.024809
   3 H :   -0.005398
   4 H :   -0.008781
   5 H :   -0.010997
   6 C :   -0.006614
   7 C :   -0.023141
   8 N :   -0.100839
   9 O :   -0.329838
  10 O :   -0.335167
  11 H :   -0.005327
  12 H :   -0.004579
  13 H :   -0.015477
  14 H :   -0.004345
  15 H :   -0.009433
  16 H :   -0.013625
  17 C :   -0.012152
  18 C :   -0.068149
  19 H :   -0.048751
  20 H :   -0.052557
  21 H :    0.013446
  22 H :    0.009456
  23 C :    0.079562
  24 H :   -0.011714
  25 H :   -0.007530
  26 H :   -0.025034
  27 H :   -0.021606

  Mayer bond orders larger than 0.100000
B(  0-Mo,  1-C ) :   1.0325 B(  0-Mo,  2-C ) :   0.1438 B(  0-Mo,  8-N ) :   1.4289
B(  0-Mo,  9-O ) :   0.8979 B(  0-Mo, 10-O ) :   0.9381 B(  0-Mo, 17-C ) :   1.0879
B(  0-Mo, 18-C ) :   0.1533 B(  0-Mo, 23-C ) :   0.1266 B(  1-C , 10-O ) :  -0.1663
B(  1-C , 18-C ) :   0.5025 B(  1-C , 23-C ) :   0.5310 B(  1-C , 26-H ) :  -0.1164
B(  1-C , 27-H ) :   0.8928 B(  2-C ,  3-H ) :   0.9512 B(  2-C ,  4-H ) :   0.9452
B(  2-C ,  5-H ) :   0.9431 B(  2-C ,  8-N ) :   0.4354 B(  6-C , 10-O ) :   0.8245
B(  6-C , 11-H ) :   0.9806 B(  6-C , 12-H ) :   0.9613 B(  6-C , 13-H ) :   0.9594
B(  7-C ,  9-O ) :   0.8448 B(  7-C , 14-H ) :   0.9930 B(  7-C , 15-H ) :   0.9510
B(  7-C , 16-H ) :   0.9242 B( 10-O , 17-C ) :  -0.1777 B( 17-C , 18-C ) :   0.5786
B( 17-C , 19-H ) :   1.0241 B( 17-C , 20-H ) :   1.0358 B( 18-C , 21-H ) :   0.9526
B( 18-C , 22-H ) :   0.9626 B( 23-C , 24-H ) :   0.9656 B( 23-C , 25-H ) :   0.9918
B( 23-C , 26-H ) :   0.9880

FINAL SINGLE POINT ENERGY      -550.285851838553

DIPOLE MOMENT
-------------
                                X             Y             Z
Electronic contribution:     11.00872       0.84953       4.63944
Nuclear contribution   :    -12.16779      -0.65832      -4.35638
                        -----------------------------------------
Total Dipole Moment    :     -1.15907       0.19122       0.28306
                        -----------------------------------------
Magnitude (a.u.)       :      1.20836
Magnitude (Debye)      :      3.07141

Rotational constants in cm-1:     0.031161     0.027931     0.019091
Rotational constants in MHz :   934.171856   837.337056   572.342467

                             ****ORCA TERMINATED NORMALLY****
TOTAL RUN TIME: 0 days 0 hours 7 minutes 21 seconds 588 msec
