                         Program Version 4.2.0 -  RELEASE  -
|  1> #
|  2> # TMB20_C1 wB97M-V/Def2-TZVPPD
|  3> #
|  4> ! wb97m-v def2-tzvppd def2/jk grid4 nofinalgrid
|  5>
|  6> *xyz 0 1
|  7> Re      -1.072665    0.212376   -0.034636
|  8> C       -1.072260   -0.271683    1.857255
|  9> C       -2.882577   -0.347239   -0.151918
| 10> C       -1.671800    1.974535    0.387813
| 11> Br      -0.106106   -2.222959   -0.227559
| 12> O       -2.042355    3.032773    0.649150
| 13> O       -1.092539   -0.543239    2.965184
| 14> O       -3.977345   -0.680746   -0.233754
| 15> C       -1.097144    1.301488   -2.052782
| 16> C       -0.757943    0.130940   -2.251371
| 17> C        3.116548    1.792974   -0.035452
| 18> C        3.822495    0.593532    0.034050
| 19> O        3.256440   -0.568022    0.077602
| 20> O        5.128051    0.619793    0.055969
| 21> C        1.730040    1.757413   -0.054388
| 22> O        1.074850    0.675289   -0.001074
| 23> H        2.259004   -0.423965    0.051981
| 24> C        5.826586   -0.629933    0.127198
| 25> H        6.879482   -0.365214    0.136783
| 26> H        5.557636   -1.164457    1.037079
| 27> H        5.594141   -1.245208   -0.740821
| 28> H       -0.446457   -0.764543   -2.749196
| 29> H        3.656243    2.725032   -0.072675
| 30> H       -1.374127    2.315189   -2.254725
| 31> H        1.177176    2.699572   -0.113184
| 32> *
| 33>
| 34> %maxcore 5000
| 35>
| 36> %pal
| 37> nprocs = 24
| 38> end
| 39>
| 40>
| 41>                          ****END OF INPUT****

CARTESIAN COORDINATES (ANGSTROEM)
---------------------------------
  Re    -1.072665    0.212376   -0.034636
  C     -1.072260   -0.271683    1.857255
  C     -2.882577   -0.347239   -0.151918
  C     -1.671800    1.974535    0.387813
  Br    -0.106106   -2.222959   -0.227559
  O     -2.042355    3.032773    0.649150
  O     -1.092539   -0.543239    2.965184
  O     -3.977345   -0.680746   -0.233754
  C     -1.097144    1.301488   -2.052782
  C     -0.757943    0.130940   -2.251371
  C      3.116548    1.792974   -0.035452
  C      3.822495    0.593532    0.034050
  O      3.256440   -0.568022    0.077602
  O      5.128051    0.619793    0.055969
  C      1.730040    1.757413   -0.054388
  O      1.074850    0.675289   -0.001074
  H      2.259004   -0.423965    0.051981
  C      5.826586   -0.629933    0.127198
  H      6.879482   -0.365214    0.136783
  H      5.557636   -1.164457    1.037079
  H      5.594141   -1.245208   -0.740821
  H     -0.446457   -0.764543   -2.749196
  H      3.656243    2.725032   -0.072675
  H     -1.374127    2.315189   -2.254725
  H      1.177176    2.699572   -0.113184

 Total Charge           Charge          ....    0
 Multiplicity           Mult            ....    1
 Number of Electrons    NEL             ....  160
 Basis Dimension        Dim             ....  825

ORBITAL ENERGIES
----------------

  NO   OCC          E(Eh)            E(eV)
   0   2.0000    -483.439737    -13155.0640
   1   2.0000     -62.744944     -1707.3767
   2   2.0000     -56.431291     -1535.5735
   3   2.0000     -56.429837     -1535.5339
   4   2.0000     -56.429696     -1535.5301
   5   2.0000     -19.435376      -528.8635
   6   2.0000     -19.419048      -528.4192
   7   2.0000     -19.412476      -528.2403
   8   2.0000     -19.402533      -527.9698
   9   2.0000     -19.392221      -527.6892
  10   2.0000     -19.376862      -527.2712
  11   2.0000     -10.539313      -286.7893
  12   2.0000     -10.468774      -284.8698
  13   2.0000     -10.468669      -284.8670
  14   2.0000     -10.467472      -284.8344
  15   2.0000     -10.453621      -284.4575
  16   2.0000     -10.436665      -283.9961
  17   2.0000     -10.391458      -282.7659
  18   2.0000     -10.381920      -282.5064
  19   2.0000     -10.370412      -282.1933
  20   2.0000      -8.827118      -240.1981
  21   2.0000      -6.609390      -179.8506
  22   2.0000      -6.604331      -179.7130
  23   2.0000      -6.603890      -179.7010
  24   2.0000      -3.336743       -90.7974
  25   2.0000      -2.690955       -73.2246
  26   2.0000      -2.689623       -73.1884
  27   2.0000      -2.689298       -73.1795
  28   2.0000      -2.685310       -73.0710
  29   2.0000      -2.685298       -73.0707
  30   2.0000      -1.891854       -51.4800
  31   2.0000      -1.890059       -51.4311
  32   2.0000      -1.886639       -51.3381
  33   2.0000      -1.313971       -35.7550
  34   2.0000      -1.269277       -34.5388
  35   2.0000      -1.259185       -34.2642
  36   2.0000      -1.248768       -33.9807
  37   2.0000      -1.237819       -33.6828
  38   2.0000      -1.206860       -32.8403
  39   2.0000      -0.957467       -26.0540
  40   2.0000      -0.924243       -25.1499
  41   2.0000      -0.888942       -24.1893
  42   2.0000      -0.824193       -22.4274
  43   2.0000      -0.785548       -21.3758
  44   2.0000      -0.778461       -21.1830
  45   2.0000      -0.712342       -19.3838
  46   2.0000      -0.702228       -19.1086
  47   2.0000      -0.696347       -18.9486
  48   2.0000      -0.683212       -18.5911
  49   2.0000      -0.678118       -18.4525
  50   2.0000      -0.658507       -17.9189
  51   2.0000      -0.655729       -17.8433
  52   2.0000      -0.641784       -17.4638
  53   2.0000      -0.626369       -17.0444
  54   2.0000      -0.604970       -16.4621
  55   2.0000      -0.593237       -16.1428
  56   2.0000      -0.584183       -15.8964
  57   2.0000      -0.580561       -15.7979
  58   2.0000      -0.578983       -15.7549
  59   2.0000      -0.576120       -15.6770
  60   2.0000      -0.572974       -15.5914
  61   2.0000      -0.567696       -15.4478
  62   2.0000      -0.562318       -15.3015
  63   2.0000      -0.559234       -15.2175
  64   2.0000      -0.550357       -14.9760
  65   2.0000      -0.547741       -14.9048
  66   2.0000      -0.540182       -14.6991
  67   2.0000      -0.529647       -14.4124
  68   2.0000      -0.509834       -13.8733
  69   2.0000      -0.480297       -13.0695
  70   2.0000      -0.452208       -12.3052
  71   2.0000      -0.447326       -12.1723
  72   2.0000      -0.430259       -11.7080
  73   2.0000      -0.383857       -10.4453
  74   2.0000      -0.374378       -10.1873
  75   2.0000      -0.370367       -10.0782
  76   2.0000      -0.365319        -9.9408
  77   2.0000      -0.319620        -8.6973
  78   2.0000      -0.318487        -8.6665
  79   2.0000      -0.309085        -8.4106
  80   0.0000      -0.004197        -0.1142
  81   0.0000       0.013969         0.3801
  82   0.0000       0.016512         0.4493
  83   0.0000       0.024246         0.6598
  84   0.0000       0.036490         0.9929

MULLIKEN ATOMIC CHARGES
-----------------------
   0 Re:    0.294463
   1 C :    0.438842
   2 C :    0.729175
   3 C :    0.242280
   4 Br:   -0.567778
   5 O :   -0.461559
   6 O :   -0.365597
   7 O :   -0.448704
   8 C :   -0.317615
   9 C :   -0.198505
  10 C :   -0.805431
  11 C :    0.947449
  12 O :   -0.488871
  13 O :   -0.350665
  14 C :    0.712594
  15 O :   -0.750932
  16 H :    0.355401
  17 C :   -0.622953
  18 H :    0.210348
  19 H :    0.310011
  20 H :    0.309795
  21 H :    0.270471
  22 H :    0.130864
  23 H :    0.272247
  24 H :    0.154670
Sum of atomic charges:   -0.0000000

LOEWDIN ATOMIC CHARGES
----------------------
   0 Re:    0.504556
   1 C :   -0.288369
   2 C :   -0.294382
   3 C :   -0.285252
   4 Br:    0.107473
   5 O :    0.110993
   6 O :    0.136889
   7 O :    0.121052
   8 C :    0.030605
   9 C :   -0.031548
  10 C :    0.111800
  11 C :   -0.337771
  12 O :    0.357893
  13 O :    0.059741
  14 C :   -0.104804
  15 O :   -0.166537
  16 H :   -0.217125
  17 C :    0.193000
  18 H :    0.015976
  19 H :    0.019119
  20 H :    0.019043
  21 H :   -0.071074
  22 H :    0.011222
  23 H :   -0.042914
  24 H :    0.040415

  Mayer bond orders larger than 0.100000
B(  0-Re,  1-C ) :   0.9512 B(  0-Re,  2-C ) :   1.3366 B(  0-Re,  3-C ) :   1.1281
B(  0-Re,  4-Br) :   0.5360 B(  0-Re,  8-C ) :   0.5961 B(  0-Re,  9-C ) :   0.5234
B(  0-Re, 15-O ) :   0.3159 B(  1-C ,  2-C ) :  -0.1458 B(  1-C ,  6-O ) :   2.0040
B(  2-C ,  7-O ) :   1.9283 B(  3-C ,  5-O ) :   1.9187 B(  3-C ,  8-C ) :   0.1175
B(  3-C , 15-O ) :   0.1043 B(  8-C ,  9-C ) :   2.0496 B(  8-C , 23-H ) :   0.9478
B(  9-C , 15-O ) :  -0.1362 B(  9-C , 21-H ) :   0.9341 B( 10-C , 11-C ) :   1.0310
B( 10-C , 14-C ) :   1.0015 B( 10-C , 15-O ) :   0.1597 B( 10-C , 22-H ) :   1.1494
B( 11-C , 12-O ) :   0.9952 B( 11-C , 13-O ) :   0.9178 B( 11-C , 15-O ) :   0.1403
B( 12-O , 16-H ) :   0.7596 B( 13-O , 17-C ) :   0.7587 B( 14-C , 15-O ) :   1.1015
B( 14-C , 24-H ) :   1.0084 B( 17-C , 18-H ) :   1.0045 B( 17-C , 19-H ) :   0.9051
B( 17-C , 20-H ) :   0.9042

FINAL SINGLE POINT ENERGY     -3451.542172121879

DIPOLE MOMENT
-------------
                                X             Y             Z
Electronic contribution:   -158.47379      14.34053      -3.92322
Nuclear contribution   :    161.40681     -12.70221       3.21078
                        -----------------------------------------
Total Dipole Moment    :      2.93302       1.63832      -0.71244
                        -----------------------------------------
Magnitude (a.u.)       :      3.43428
Magnitude (Debye)      :      8.72924

Rotational constants in cm-1:     0.015589     0.006706     0.005713
Rotational constants in MHz :   467.340547   201.035293   171.274519

                             ****ORCA TERMINATED NORMALLY****
TOTAL RUN TIME: 0 days 0 hours 10 minutes 22 seconds 115 msec
