                         Program Version 4.2.0 -  RELEASE  -
|  1> #
|  2> # TMB26_T1 wB97M-V/Def2-TZVPPD
|  3> #
|  4> ! wb97m-v def2-tzvppd def2/jk grid4 nofinalgrid
|  5>
|  6> *xyz 0 1
|  7> C       -2.466566    1.069840    0.238308
|  8> C       -2.451721    0.070166    1.223311
|  9> C       -3.390268   -0.966147    1.168446
| 10> C       -4.328348   -1.022612    0.143865
| 11> C       -4.333048   -0.013813   -0.819144
| 12> C       -3.403006    1.027077   -0.774806
| 13> H       -1.851874    0.172622    2.118430
| 14> H       -5.044959   -1.827220    0.098719
| 15> H       -3.408268    1.764270   -1.566273
| 16> C       -1.433505    2.123552    0.250561
| 17> C       -1.778108    3.466931    0.185146
| 18> C       -0.064979    1.782593    0.286078
| 19> C       -0.802488    4.453319    0.169404
| 20> H       -2.826505    3.739000    0.161874
| 21> C        0.907771    2.775168    0.263672
| 22> C        0.538977    4.108677    0.211691
| 23> H       -1.095064    5.495288    0.125305
| 24> H        1.951961    2.493561    0.298441
| 25> H        1.301937    4.876538    0.199556
| 26> C        0.257789    0.377788    0.312230
| 27> C       -0.304042   -0.722217    0.502541
| 28> H       -0.515543   -1.762216    0.625327
| 29> Au       2.138195   -0.491597   -0.140080
| 30> Cl       1.419476   -1.043843   -2.240555
| 31> Cl       4.263347   -1.139807   -0.651257
| 32> Cl       2.780432    0.097050    1.979491
| 33> O       -3.309425   -1.870502    2.160546
| 34> O       -5.195970    0.025756   -1.845512
| 35> C       -4.244039   -2.927838    2.190952
| 36> H       -4.158173   -3.562934    1.304307
| 37> H       -4.005337   -3.514103    3.075014
| 38> H       -5.267556   -2.550903    2.273203
| 39> C       -6.143948   -1.010635   -1.979012
| 40> H       -6.717344   -0.779100   -2.873359
| 41> H       -5.656738   -1.981777   -2.105696
| 42> H       -6.818943   -1.047780   -1.118843
| 43> *
| 44>
| 45> %maxcore 5000
| 46>
| 47> %pal
| 48> nprocs = 24
| 49> end
| 50>
| 51>
| 52>                          ****END OF INPUT****

CARTESIAN COORDINATES (ANGSTROEM)
---------------------------------
  C     -2.466566    1.069840    0.238308
  C     -2.451721    0.070166    1.223311
  C     -3.390268   -0.966147    1.168446
  C     -4.328348   -1.022612    0.143865
  C     -4.333048   -0.013813   -0.819144
  C     -3.403006    1.027077   -0.774806
  H     -1.851874    0.172622    2.118430
  H     -5.044959   -1.827220    0.098719
  H     -3.408268    1.764270   -1.566273
  C     -1.433505    2.123552    0.250561
  C     -1.778108    3.466931    0.185146
  C     -0.064979    1.782593    0.286078
  C     -0.802488    4.453319    0.169404
  H     -2.826505    3.739000    0.161874
  C      0.907771    2.775168    0.263672
  C      0.538977    4.108677    0.211691
  H     -1.095064    5.495288    0.125305
  H      1.951961    2.493561    0.298441
  H      1.301937    4.876538    0.199556
  C      0.257789    0.377788    0.312230
  C     -0.304042   -0.722217    0.502541
  H     -0.515543   -1.762216    0.625327
  Au     2.138195   -0.491597   -0.140080
  Cl     1.419476   -1.043843   -2.240555
  Cl     4.263347   -1.139807   -0.651257
  Cl     2.780432    0.097050    1.979491
  O     -3.309425   -1.870502    2.160546
  O     -5.195970    0.025756   -1.845512
  C     -4.244039   -2.927838    2.190952
  H     -4.158173   -3.562934    1.304307
  H     -4.005337   -3.514103    3.075014
  H     -5.267556   -2.550903    2.273203
  C     -6.143948   -1.010635   -1.979012
  H     -6.717344   -0.779100   -2.873359
  H     -5.656738   -1.981777   -2.105696
  H     -6.818943   -1.047780   -1.118843

 Total Charge           Charge          ....    0
 Multiplicity           Mult            ....    1
 Number of Electrons    NEL             ....  196
 Basis Dimension        Dim             .... 1122

ORBITAL ENERGIES
----------------

  NO   OCC          E(Eh)            E(eV)
   0   2.0000    -101.838603     -2771.1693
   1   2.0000    -101.838158     -2771.1572
   2   2.0000    -101.831615     -2770.9791
   3   2.0000     -19.402405      -527.9663
   4   2.0000     -19.399110      -527.8766
   5   2.0000     -10.451309      -284.3946
   6   2.0000     -10.450221      -284.3650
   7   2.0000     -10.444356      -284.2054
   8   2.0000     -10.426790      -283.7274
   9   2.0000     -10.424282      -283.6591
  10   2.0000     -10.422978      -283.6236
  11   2.0000     -10.404249      -283.1140
  12   2.0000     -10.398847      -282.9670
  13   2.0000     -10.395744      -282.8826
  14   2.0000     -10.378638      -282.4171
  15   2.0000     -10.377856      -282.3958
  16   2.0000     -10.377041      -282.3736
  17   2.0000     -10.376582      -282.3612
  18   2.0000     -10.373596      -282.2799
  19   2.0000     -10.373215      -282.2695
  20   2.0000     -10.366325      -282.0820
  21   2.0000      -9.610687      -261.5201
  22   2.0000      -9.610192      -261.5066
  23   2.0000      -9.603526      -261.3252
  24   2.0000      -7.314219      -199.0300
  25   2.0000      -7.313789      -199.0183
  26   2.0000      -7.307881      -198.8576
  27   2.0000      -7.307429      -198.8452
  28   2.0000      -7.307398      -198.8444
  29   2.0000      -7.307346      -198.8430
  30   2.0000      -7.306777      -198.8275
  31   2.0000      -7.300615      -198.6598
  32   2.0000      -7.299900      -198.6404
  33   2.0000      -4.406091      -119.8958
  34   2.0000      -2.581267       -70.2398
  35   2.0000      -2.579376       -70.1884
  36   2.0000      -2.556972       -69.5787
  37   2.0000      -1.241994       -33.7964
  38   2.0000      -1.238969       -33.7140
  39   2.0000      -1.042970       -28.3806
  40   2.0000      -1.011690       -27.5295
  41   2.0000      -0.974367       -26.5139
  42   2.0000      -0.937443       -25.5091
  43   2.0000      -0.923837       -25.1389
  44   2.0000      -0.910994       -24.7894
  45   2.0000      -0.900389       -24.5008
  46   2.0000      -0.891411       -24.2565
  47   2.0000      -0.889039       -24.1920
  48   2.0000      -0.882967       -24.0268
  49   2.0000      -0.873825       -23.7780
  50   2.0000      -0.835060       -22.7231
  51   2.0000      -0.783825       -21.3290
  52   2.0000      -0.771147       -20.9840
  53   2.0000      -0.751858       -20.4591
  54   2.0000      -0.729888       -19.8613
  55   2.0000      -0.706757       -19.2318
  56   2.0000      -0.691952       -18.8290
  57   2.0000      -0.659351       -17.9418
  58   2.0000      -0.655881       -17.8474
  59   2.0000      -0.632683       -17.2162
  60   2.0000      -0.627964       -17.0878
  61   2.0000      -0.623549       -16.9676
  62   2.0000      -0.613328       -16.6895
  63   2.0000      -0.611502       -16.6398
  64   2.0000      -0.608181       -16.5494
  65   2.0000      -0.580494       -15.7960
  66   2.0000      -0.575002       -15.6466
  67   2.0000      -0.569539       -15.4979
  68   2.0000      -0.567140       -15.4327
  69   2.0000      -0.560437       -15.2503
  70   2.0000      -0.554116       -15.0783
  71   2.0000      -0.550748       -14.9866
  72   2.0000      -0.533482       -14.5168
  73   2.0000      -0.531305       -14.4576
  74   2.0000      -0.521759       -14.1978
  75   2.0000      -0.518551       -14.1105
  76   2.0000      -0.516824       -14.0635
  77   2.0000      -0.512556       -13.9473
  78   2.0000      -0.489733       -13.3263
  79   2.0000      -0.485749       -13.2179
  80   2.0000      -0.481220       -13.0946
  81   2.0000      -0.473066       -12.8728
  82   2.0000      -0.467975       -12.7342
  83   2.0000      -0.463253       -12.6058
  84   2.0000      -0.457343       -12.4449
  85   2.0000      -0.443423       -12.0661
  86   2.0000      -0.431451       -11.7404
  87   2.0000      -0.413747       -11.2586
  88   2.0000      -0.406093       -11.0504
  89   2.0000      -0.386505       -10.5173
  90   2.0000      -0.381776       -10.3886
  91   2.0000      -0.375289       -10.2121
  92   2.0000      -0.371525       -10.1097
  93   2.0000      -0.369818       -10.0633
  94   2.0000      -0.362579        -9.8663
  95   2.0000      -0.357901        -9.7390
  96   2.0000      -0.346791        -9.4367
  97   2.0000      -0.328421        -8.9368
  98   0.0000      -0.070691        -1.9236
  99   0.0000      -0.011926        -0.3245
 100   0.0000       0.007358         0.2002
 101   0.0000       0.009900         0.2694
 102   0.0000       0.023821         0.6482

MULLIKEN ATOMIC CHARGES
-----------------------
   0 C :    1.266216
   1 C :   -0.760688
   2 C :    0.555087
   3 C :   -0.486352
   4 C :    0.388367
   5 C :   -0.745025
   6 H :    0.439393
   7 H :    0.170019
   8 H :    0.181296
   9 C :    0.478238
  10 C :   -0.477946
  11 C :    1.398714
  12 C :   -0.310923
  13 H :    0.207220
  14 C :   -0.526048
  15 C :   -0.384468
  16 H :    0.167775
  17 H :   -0.006640
  18 H :    0.167586
  19 C :   -0.023559
  20 C :    0.203309
  21 H :    0.118122
  22 Au:    0.031415
  23 Cl:   -0.418389
  24 Cl:   -0.373131
  25 Cl:   -0.429139
  26 O :   -0.471650
  27 O :   -0.471871
  28 C :   -0.877075
  29 H :    0.347452
  30 H :    0.212879
  31 H :    0.363310
  32 C :   -0.822640
  33 H :    0.204692
  34 H :    0.344825
  35 H :    0.339625
Sum of atomic charges:    0.0000000

LOEWDIN ATOMIC CHARGES
----------------------
   0 C :   -0.131613
   1 C :    0.060997
   2 C :   -0.231223
   3 C :    0.128971
   4 C :   -0.218275
   5 C :    0.130399
   6 H :    0.038878
   7 H :   -0.013814
   8 H :    0.032864
   9 C :   -0.091899
  10 C :    0.067731
  11 C :   -0.153763
  12 C :    0.037523
  13 H :    0.019667
  14 C :    0.055262
  15 C :    0.037845
  16 H :    0.008134
  17 H :   -0.011296
  18 H :    0.009305
  19 C :   -0.328162
  20 C :    0.209252
  21 H :   -0.009921
  22 Au:    0.239908
  23 Cl:   -0.056158
  24 Cl:   -0.118318
  25 Cl:   -0.034849
  26 O :   -0.014283
  27 O :   -0.008092
  28 C :    0.128975
  29 H :    0.014739
  30 H :    0.014669
  31 H :    0.015253
  32 C :    0.127707
  33 H :    0.014353
  34 H :    0.015185
  35 H :    0.014046

  Mayer bond orders larger than 0.100000
B(  0-C ,  1-C ) :   0.1149 B(  0-C ,  3-C ) :  -0.4569 B(  0-C ,  4-C ) :  -0.1456
B(  0-C ,  5-C ) :   0.7002 B(  0-C ,  6-H ) :  -0.2575 B(  0-C ,  8-H ) :  -0.2708
B(  0-C ,  9-C ) :  -1.5044 B(  0-C , 10-C ) :  -0.1107 B(  0-C , 12-C ) :  -0.1386
B(  0-C , 15-C ) :   0.1217 B(  1-C ,  2-C ) :   0.9645 B(  1-C ,  5-C ) :   0.2221
B(  1-C ,  6-H ) :   1.0506 B(  1-C ,  9-C ) :  -0.1849 B(  1-C , 10-C ) :   0.4695
B(  1-C , 12-C ) :  -0.1175 B(  1-C , 14-C ) :  -0.1285 B(  1-C , 20-C ) :   0.1532
B(  2-C ,  3-C ) :   1.4317 B(  2-C ,  4-C ) :   0.1480 B(  2-C ,  6-H ) :   0.1652
B(  2-C ,  9-C ) :   0.1085 B(  2-C , 10-C ) :  -0.3435 B(  2-C , 11-C ) :   0.1252
B(  2-C , 12-C ) :   0.1218 B(  2-C , 14-C ) :   0.1700 B(  2-C , 19-C ) :  -0.1265
B(  2-C , 20-C ) :  -0.1480 B(  2-C , 26-O ) :   0.5810 B(  2-C , 28-C ) :  -0.1137
B(  3-C ,  4-C ) :   1.3257 B(  3-C ,  7-H ) :   1.0767 B(  3-C ,  9-C ) :   0.1268
B(  3-C , 10-C ) :   0.1239 B(  3-C , 11-C ) :  -0.1375 B(  4-C ,  5-C ) :   1.4237
B(  4-C , 10-C ) :  -0.2125 B(  4-C , 27-O ) :   0.7026 B(  5-C ,  6-H ) :  -0.1003
B(  5-C ,  8-H ) :   1.1405 B(  5-C ,  9-C ) :  -0.1654 B(  5-C , 10-C ) :   0.2308
B(  5-C , 11-C ) :  -0.1469 B(  5-C , 19-C ) :   0.1196 B(  5-C , 20-C ) :   0.1506
B(  9-C , 10-C ) :   0.3348 B(  9-C , 11-C ) :   0.9373 B(  9-C , 13-H ) :  -0.2585
B( 10-C , 12-C ) :   1.2783 B( 10-C , 13-H ) :   1.1406 B( 10-C , 19-C ) :   0.1086
B( 11-C , 14-C ) :   0.2661 B( 11-C , 17-H ) :  -0.5660 B( 11-C , 19-C ) :  -0.4657
B( 11-C , 20-C ) :   0.1347 B( 11-C , 22-Au) :  -0.7281 B( 11-C , 25-Cl) :  -0.2247
B( 12-C , 15-C ) :   1.1081 B( 12-C , 16-H ) :   1.0697 B( 14-C , 15-C ) :   1.3751
B( 14-C , 17-H ) :   1.3742 B( 14-C , 19-C ) :   0.1086 B( 15-C , 18-H ) :   1.0699
B( 19-C , 20-C ) :   1.6019 B( 19-C , 21-H ) :  -0.1777 B( 19-C , 22-Au) :   0.6299
B( 19-C , 25-Cl) :   0.4226 B( 20-C , 21-H ) :   1.1779 B( 20-C , 22-Au) :   0.2466
B( 20-C , 23-Cl) :  -0.2554 B( 20-C , 25-Cl) :  -0.4169 B( 22-Au, 23-Cl) :   0.9954
B( 22-Au, 24-Cl) :   0.8432 B( 22-Au, 25-Cl) :   0.9701 B( 23-Cl, 25-Cl) :   0.1228
B( 26-O , 28-C ) :   0.8541 B( 27-O , 32-C ) :   0.8353 B( 28-C , 29-H ) :   0.8740
B( 28-C , 30-H ) :   1.0460 B( 28-C , 31-H ) :   0.8695 B( 32-C , 33-H ) :   1.0507
B( 32-C , 34-H ) :   0.8822 B( 32-C , 35-H ) :   0.8828

FINAL SINGLE POINT ENERGY     -2284.781151746572

DIPOLE MOMENT
-------------
                                X             Y             Z
Electronic contribution:    332.59655     -71.59241     -21.68172
Nuclear contribution   :   -337.50313      71.82916      22.27008
                        -----------------------------------------
Total Dipole Moment    :     -4.90657       0.23675       0.58836
                        -----------------------------------------
Magnitude (a.u.)       :      4.94739
Magnitude (Debye)      :     12.57526

Rotational constants in cm-1:     0.008801     0.003370     0.003018
Rotational constants in MHz :   263.837003   101.042363    90.466575

                             ****ORCA TERMINATED NORMALLY****
TOTAL RUN TIME: 0 days 0 hours 33 minutes 26 seconds 153 msec
