                         Program Version 4.2.0 -  RELEASE  -
|  1> #
|  2> # TMB20_T1 wB97M-V/Def2-TZVPPD
|  3> #
|  4> ! wb97m-v def2-tzvppd def2/jk grid4 nofinalgrid
|  5>
|  6> *xyz 0 1
|  7> Re       1.075850    0.159419    0.019780
|  8> C        2.196750   -0.403878   -1.423482
|  9> C        2.402994   -0.436307    1.215711
| 10> C        1.922458    1.855293   -0.011396
| 11> Br      -0.261613   -2.102343    0.064683
| 12> O        2.449833    2.881230   -0.022028
| 13> O        2.868443   -0.722069   -2.296753
| 14> O        3.210599   -0.792996    1.955405
| 15> C       -1.539667    1.495797    1.625423
| 16> C       -0.428781    0.920088    1.558456
| 17> C       -2.591644    1.677755   -0.408432
| 18> C       -3.343269    0.487162   -0.270226
| 19> O       -2.954237   -0.721219   -0.381568
| 20> O       -4.608112    0.658864    0.009021
| 21> C       -1.326616    1.715594   -1.019432
| 22> O       -0.664105    0.697605   -1.265770
| 23> H       -1.956019   -0.923705   -0.405218
| 24> C       -5.425994   -0.504251    0.214760
| 25> H       -6.403655   -0.115620    0.482117
| 26> H       -5.482311   -1.089893   -0.701194
| 27> H       -5.017526   -1.116193    1.017061
| 28> H        0.138084    0.692302    2.461523
| 29> H       -3.155110    2.594425   -0.305352
| 30> H       -2.375145    2.018826    2.037613
| 31> H       -0.897368    2.710605   -1.208716
| 32> *
| 33>
| 34> %maxcore 5000
| 35>
| 36> %pal
| 37> nprocs = 24
| 38> end
| 39>
| 40>
| 41>                          ****END OF INPUT****

CARTESIAN COORDINATES (ANGSTROEM)
---------------------------------
  Re     1.075850    0.159419    0.019780
  C      2.196750   -0.403878   -1.423482
  C      2.402994   -0.436307    1.215711
  C      1.922458    1.855293   -0.011396
  Br    -0.261613   -2.102343    0.064683
  O      2.449833    2.881230   -0.022028
  O      2.868443   -0.722069   -2.296753
  O      3.210599   -0.792996    1.955405
  C     -1.539667    1.495797    1.625423
  C     -0.428781    0.920088    1.558456
  C     -2.591644    1.677755   -0.408432
  C     -3.343269    0.487162   -0.270226
  O     -2.954237   -0.721219   -0.381568
  O     -4.608112    0.658864    0.009021
  C     -1.326616    1.715594   -1.019432
  O     -0.664105    0.697605   -1.265770
  H     -1.956019   -0.923705   -0.405218
  C     -5.425994   -0.504251    0.214760
  H     -6.403655   -0.115620    0.482117
  H     -5.482311   -1.089893   -0.701194
  H     -5.017526   -1.116193    1.017061
  H      0.138084    0.692302    2.461523
  H     -3.155110    2.594425   -0.305352
  H     -2.375145    2.018826    2.037613
  H     -0.897368    2.710605   -1.208716

 Total Charge           Charge          ....    0
 Multiplicity           Mult            ....    1
 Number of Electrons    NEL             ....  160
 Basis Dimension        Dim             ....  825

ORBITAL ENERGIES
----------------

  NO   OCC          E(Eh)            E(eV)
   0   2.0000    -483.447339    -13155.2709
   1   2.0000     -62.752717     -1707.5882
   2   2.0000     -56.438665     -1535.7742
   3   2.0000     -56.437905     -1535.7535
   4   2.0000     -56.437539     -1535.7435
   5   2.0000     -19.451942      -529.3143
   6   2.0000     -19.434220      -528.8320
   7   2.0000     -19.388259      -527.5813
   8   2.0000     -19.382647      -527.4286
   9   2.0000     -19.379090      -527.3319
  10   2.0000     -19.365570      -526.9639
  11   2.0000     -10.562676      -287.4250
  12   2.0000     -10.476502      -285.0801
  13   2.0000     -10.448629      -284.3216
  14   2.0000     -10.447655      -284.2952
  15   2.0000     -10.446472      -284.2630
  16   2.0000     -10.443258      -284.1755
  17   2.0000     -10.430324      -283.8235
  18   2.0000     -10.395913      -282.8872
  19   2.0000     -10.376997      -282.3725
  20   2.0000      -8.834978      -240.4120
  21   2.0000      -6.615950      -180.0291
  22   2.0000      -6.613295      -179.9569
  23   2.0000      -6.612000      -179.9217
  24   2.0000      -3.320736       -90.3618
  25   2.0000      -2.697924       -73.4142
  26   2.0000      -2.697389       -73.3997
  27   2.0000      -2.696307       -73.3703
  28   2.0000      -2.694222       -73.3135
  29   2.0000      -2.694176       -73.3122
  30   2.0000      -1.878448       -51.1152
  31   2.0000      -1.872288       -50.9475
  32   2.0000      -1.871805       -50.9344
  33   2.0000      -1.331081       -36.2206
  34   2.0000      -1.244957       -33.8770
  35   2.0000      -1.244422       -33.8624
  36   2.0000      -1.238118       -33.6909
  37   2.0000      -1.234977       -33.6054
  38   2.0000      -1.213557       -33.0226
  39   2.0000      -0.976171       -26.5630
  40   2.0000      -0.929676       -25.2978
  41   2.0000      -0.896535       -24.3959
  42   2.0000      -0.840528       -22.8719
  43   2.0000      -0.804177       -21.8828
  44   2.0000      -0.780832       -21.2475
  45   2.0000      -0.723641       -19.6913
  46   2.0000      -0.713839       -19.4245
  47   2.0000      -0.693506       -18.8712
  48   2.0000      -0.671471       -18.2716
  49   2.0000      -0.666050       -18.1241
  50   2.0000      -0.664778       -18.0895
  51   2.0000      -0.654592       -17.8124
  52   2.0000      -0.646450       -17.5908
  53   2.0000      -0.621189       -16.9034
  54   2.0000      -0.602349       -16.3908
  55   2.0000      -0.593779       -16.1576
  56   2.0000      -0.584987       -15.9183
  57   2.0000      -0.575348       -15.6560
  58   2.0000      -0.567036       -15.4298
  59   2.0000      -0.563790       -15.3415
  60   2.0000      -0.561918       -15.2906
  61   2.0000      -0.556262       -15.1367
  62   2.0000      -0.552126       -15.0241
  63   2.0000      -0.542381       -14.7589
  64   2.0000      -0.536223       -14.5914
  65   2.0000      -0.534681       -14.5494
  66   2.0000      -0.532360       -14.4862
  67   2.0000      -0.527892       -14.3647
  68   2.0000      -0.524811       -14.2808
  69   2.0000      -0.494243       -13.4490
  70   2.0000      -0.449883       -12.2419
  71   2.0000      -0.441520       -12.0144
  72   2.0000      -0.426580       -11.6078
  73   2.0000      -0.387393       -10.5415
  74   2.0000      -0.382100       -10.3975
  75   2.0000      -0.366134        -9.9630
  76   2.0000      -0.361002        -9.8234
  77   2.0000      -0.317588        -8.6420
  78   2.0000      -0.311275        -8.4702
  79   2.0000      -0.304472        -8.2851
  80   0.0000      -0.024952        -0.6790
  81   0.0000      -0.011823        -0.3217
  82   0.0000       0.005565         0.1514
  83   0.0000       0.022351         0.6082
  84   0.0000       0.032770         0.8917

MULLIKEN ATOMIC CHARGES
-----------------------
   0 Re:    0.217611
   1 C :    0.700501
   2 C :    0.434484
   3 C :    0.211565
   4 Br:   -0.558159
   5 O :   -0.455151
   6 O :   -0.425844
   7 O :   -0.449990
   8 C :   -0.330939
   9 C :    0.086327
  10 C :   -0.435247
  11 C :    1.012808
  12 O :   -0.405720
  13 O :   -0.342618
  14 C :    0.022464
  15 O :   -0.683185
  16 H :    0.292268
  17 C :   -0.651544
  18 H :    0.206588
  19 H :    0.318103
  20 H :    0.323690
  21 H :    0.116079
  22 H :    0.302291
  23 H :    0.274804
  24 H :    0.218814
Sum of atomic charges:   -0.0000000

LOEWDIN ATOMIC CHARGES
----------------------
   0 Re:    0.502347
   1 C :   -0.279618
   2 C :   -0.336420
   3 C :   -0.279257
   4 Br:    0.231510
   5 O :    0.092985
   6 O :    0.118902
   7 O :    0.099208
   8 C :    0.207570
   9 C :   -0.058285
  10 C :    0.032189
  11 C :   -0.350313
  12 O :    0.315130
  13 O :    0.058349
  14 C :   -0.194922
  15 O :   -0.135817
  16 H :   -0.309609
  17 C :    0.204723
  18 H :    0.017281
  19 H :    0.021026
  20 H :    0.021465
  21 H :   -0.029181
  22 H :    0.025959
  23 H :   -0.029123
  24 H :    0.053900

  Mayer bond orders larger than 0.100000
B(  0-Re,  1-C ) :   1.3200 B(  0-Re,  2-C ) :   1.4296 B(  0-Re,  3-C ) :   1.3834
B(  0-Re,  4-Br) :   0.4718 B(  0-Re,  9-C ) :   0.4454 B(  0-Re, 15-O ) :   0.2803
B(  1-C ,  2-C ) :  -0.1553 B(  1-C ,  6-O ) :   1.9595 B(  1-C ,  8-C ) :   0.1257
B(  1-C ,  9-C ) :  -0.1296 B(  2-C ,  7-O ) :   1.9043 B(  3-C ,  5-O ) :   1.9089
B(  4-Br, 16-H ) :   0.1937 B(  8-C ,  9-C ) :   2.0806 B(  8-C , 10-C ) :   0.1424
B(  8-C , 14-C ) :   0.1482 B(  8-C , 21-H ) :   0.1097 B(  8-C , 23-H ) :   0.9399
B(  9-C , 10-C ) :  -0.1219 B(  9-C , 11-C ) :   0.1026 B(  9-C , 21-H ) :   0.9595
B( 10-C , 11-C ) :   0.8190 B( 10-C , 14-C ) :   1.0290 B( 10-C , 22-H ) :   1.0679
B( 11-C , 12-O ) :   0.9934 B( 11-C , 13-O ) :   0.8516 B( 12-O , 16-H ) :   0.7550
B( 13-O , 17-C ) :   0.7769 B( 14-C , 15-O ) :   1.3594 B( 14-C , 24-H ) :   1.0535
B( 17-C , 18-H ) :   1.0066 B( 17-C , 19-H ) :   0.8999 B( 17-C , 20-H ) :   0.8924

FINAL SINGLE POINT ENERGY     -3451.482665756327

DIPOLE MOMENT
-------------
                                X             Y             Z
Electronic contribution:    156.42522       7.30690       1.59139
Nuclear contribution   :   -160.68759      -5.62073      -0.99353
                        -----------------------------------------
Total Dipole Moment    :     -4.26238       1.68616       0.59785
                        -----------------------------------------
Magnitude (a.u.)       :      4.62260
Magnitude (Debye)      :     11.74971

Rotational constants in cm-1:     0.016566     0.007303     0.006214
Rotational constants in MHz :   496.645586   218.925333   186.291690

                             ****ORCA TERMINATED NORMALLY****
TOTAL RUN TIME: 0 days 0 hours 14 minutes 3 seconds 687 msec
