                         Program Version 4.2.0 -  RELEASE  -
|  1> #
|  2> # TMB28_T1 wB97M-V/Def2-TZVPPD
|  3> #
|  4> ! wb97m-v def2-tzvppd def2/jk grid4 nofinalgrid
|  5>
|  6> *xyz 0 1
|  7> C       -0.472087   -1.270184   -0.544262
|  8> C       -1.371263   -0.408913   -0.410763
|  9> C       -0.283188   -2.679486   -0.928311
| 10> H       -1.250337   -3.132270   -1.147533
| 11> H        0.355340   -2.736203   -1.811412
| 12> H        0.207850   -3.220295   -0.118359
| 13> C       -2.087605    0.860649   -0.268000
| 14> O       -3.384272    0.602181    0.322954
| 15> C       -3.916162   -0.562532   -0.037107
| 16> O       -3.286397   -1.359772   -0.698080
| 17> C       -1.360806    1.791956    0.779385
| 18> O       -0.796250    2.763376    0.375084
| 19> C       -1.472551    1.401357    2.216606
| 20> H       -1.203914    0.352090    2.355444
| 21> H       -0.810137    2.031512    2.804683
| 22> H       -2.503869    1.535124    2.549793
| 23> C       -5.307153   -0.755812    0.455050
| 24> H       -5.663745   -1.741165    0.170882
| 25> H       -5.328847   -0.642840    1.539841
| 26> H       -5.952574    0.015643    0.032531
| 27> C       -2.259938    1.568911   -1.595082
| 28> H       -2.813189    2.495499   -1.446777
| 29> H       -1.275651    1.804221   -1.997337
| 30> H       -2.786554    0.924255   -2.298279
| 31> Au       1.278819   -0.204328   -0.045979
| 32> Cl       1.126476   -1.118462    2.051374
| 33> Cl       3.319842    0.694072    0.431966
| 34> Cl       1.372434    0.585236   -2.189571
| 35> *
| 36>
| 37> %maxcore 5000
| 38>
| 39> %pal
| 40> nprocs = 24
| 41> end
| 42>
| 43>
| 44>                          ****END OF INPUT****

CARTESIAN COORDINATES (ANGSTROEM)
---------------------------------
  C     -0.472087   -1.270184   -0.544262
  C     -1.371263   -0.408913   -0.410763
  C     -0.283188   -2.679486   -0.928311
  H     -1.250337   -3.132270   -1.147533
  H      0.355340   -2.736203   -1.811412
  H      0.207850   -3.220295   -0.118359
  C     -2.087605    0.860649   -0.268000
  O     -3.384272    0.602181    0.322954
  C     -3.916162   -0.562532   -0.037107
  O     -3.286397   -1.359772   -0.698080
  C     -1.360806    1.791956    0.779385
  O     -0.796250    2.763376    0.375084
  C     -1.472551    1.401357    2.216606
  H     -1.203914    0.352090    2.355444
  H     -0.810137    2.031512    2.804683
  H     -2.503869    1.535124    2.549793
  C     -5.307153   -0.755812    0.455050
  H     -5.663745   -1.741165    0.170882
  H     -5.328847   -0.642840    1.539841
  H     -5.952574    0.015643    0.032531
  C     -2.259938    1.568911   -1.595082
  H     -2.813189    2.495499   -1.446777
  H     -1.275651    1.804221   -1.997337
  H     -2.786554    0.924255   -2.298279
  Au     1.278819   -0.204328   -0.045979
  Cl     1.126476   -1.118462    2.051374
  Cl     3.319842    0.694072    0.431966
  Cl     1.372434    0.585236   -2.189571

 Total Charge           Charge          ....    0
 Multiplicity           Mult            ....    1
 Number of Electrons    NEL             ....  160
 Basis Dimension        Dim             ....  869

ORBITAL ENERGIES
----------------

  NO   OCC          E(Eh)            E(eV)
   0   2.0000    -101.845729     -2771.3632
   1   2.0000    -101.843749     -2771.3093
   2   2.0000    -101.832337     -2770.9988
   3   2.0000     -19.447324      -529.1886
   4   2.0000     -19.397776      -527.8403
   5   2.0000     -19.370356      -527.0942
   6   2.0000     -10.545467      -286.9567
   7   2.0000     -10.494370      -285.5663
   8   2.0000     -10.484139      -285.2879
   9   2.0000     -10.458737      -284.5967
  10   2.0000     -10.425615      -283.6954
  11   2.0000     -10.403833      -283.1027
  12   2.0000     -10.387332      -282.6537
  13   2.0000     -10.372069      -282.2383
  14   2.0000     -10.369936      -282.1803
  15   2.0000      -9.617929      -261.7172
  16   2.0000      -9.615833      -261.6601
  17   2.0000      -9.604275      -261.3456
  18   2.0000      -7.321322      -199.2233
  19   2.0000      -7.319384      -199.1706
  20   2.0000      -7.315140      -199.0551
  21   2.0000      -7.314716      -199.0435
  22   2.0000      -7.312993      -198.9967
  23   2.0000      -7.312517      -198.9837
  24   2.0000      -7.308167      -198.8653
  25   2.0000      -7.301323      -198.6791
  26   2.0000      -7.300708      -198.6624
  27   2.0000      -4.407175      -119.9253
  28   2.0000      -2.582263       -70.2670
  29   2.0000      -2.581066       -70.2344
  30   2.0000      -2.557866       -69.6031
  31   2.0000      -1.319943       -35.9175
  32   2.0000      -1.230130       -33.4735
  33   2.0000      -1.218097       -33.1461
  34   2.0000      -1.015283       -27.6272
  35   2.0000      -0.962551       -26.1924
  36   2.0000      -0.922957       -25.1149
  37   2.0000      -0.916582       -24.9415
  38   2.0000      -0.904925       -24.6243
  39   2.0000      -0.897614       -24.4253
  40   2.0000      -0.891100       -24.2481
  41   2.0000      -0.869382       -23.6571
  42   2.0000      -0.822094       -22.3703
  43   2.0000      -0.770968       -20.9791
  44   2.0000      -0.731593       -19.9076
  45   2.0000      -0.681756       -18.5515
  46   2.0000      -0.661309       -17.9951
  47   2.0000      -0.650732       -17.7073
  48   2.0000      -0.629134       -17.1196
  49   2.0000      -0.618445       -16.8287
  50   2.0000      -0.607804       -16.5392
  51   2.0000      -0.594124       -16.1669
  52   2.0000      -0.587369       -15.9831
  53   2.0000      -0.582058       -15.8386
  54   2.0000      -0.573189       -15.5973
  55   2.0000      -0.563601       -15.3364
  56   2.0000      -0.561298       -15.2737
  57   2.0000      -0.556725       -15.1493
  58   2.0000      -0.550304       -14.9745
  59   2.0000      -0.546821       -14.8798
  60   2.0000      -0.540568       -14.7096
  61   2.0000      -0.532815       -14.4986
  62   2.0000      -0.528122       -14.3709
  63   2.0000      -0.521836       -14.1999
  64   2.0000      -0.515872       -14.0376
  65   2.0000      -0.506310       -13.7774
  66   2.0000      -0.499329       -13.5874
  67   2.0000      -0.482832       -13.1385
  68   2.0000      -0.478168       -13.0116
  69   2.0000      -0.452307       -12.3079
  70   2.0000      -0.438901       -11.9431
  71   2.0000      -0.426703       -11.6112
  72   2.0000      -0.413570       -11.2538
  73   2.0000      -0.410678       -11.1751
  74   2.0000      -0.393096       -10.6967
  75   2.0000      -0.379743       -10.3333
  76   2.0000      -0.376885       -10.2556
  77   2.0000      -0.373873       -10.1736
  78   2.0000      -0.371081       -10.0976
  79   2.0000      -0.362502        -9.8642
  80   0.0000      -0.075590        -2.0569
  81   0.0000      -0.002460        -0.0669
  82   0.0000       0.010368         0.2821
  83   0.0000       0.025261         0.6874
  84   0.0000       0.030794         0.8380

MULLIKEN ATOMIC CHARGES
-----------------------
   0 C :   -1.136490
   1 C :    1.271331
   2 C :   -1.186695
   3 H :    0.313051
   4 H :    0.268287
   5 H :    0.262965
   6 C :    2.795118
   7 O :   -0.439866
   8 C :    0.806405
   9 O :   -0.556495
  10 C :    0.204756
  11 O :   -0.518709
  12 C :   -1.148311
  13 H :    0.296457
  14 H :    0.314136
  15 H :    0.310685
  16 C :   -1.076291
  17 H :    0.319462
  18 H :    0.288137
  19 H :    0.279417
  20 C :   -1.571915
  21 H :    0.360366
  22 H :    0.299123
  23 H :    0.368037
  24 Au:    0.136336
  25 Cl:   -0.456387
  26 Cl:   -0.368097
  27 Cl:   -0.434816
Sum of atomic charges:   -0.0000000

LOEWDIN ATOMIC CHARGES
----------------------
   0 C :   -0.314545
   1 C :    0.047985
   2 C :    0.140553
   3 H :   -0.001845
   4 H :   -0.000573
   5 H :   -0.013117
   6 C :   -0.340830
   7 O :    0.083497
   8 C :   -0.433513
   9 O :    0.144467
  10 C :   -0.326350
  11 O :    0.146303
  12 C :    0.212225
  13 H :   -0.046144
  14 H :    0.012766
  15 H :    0.006727
  16 C :    0.263429
  17 H :    0.009542
  18 H :    0.014120
  19 H :    0.014770
  20 C :    0.225577
  21 H :    0.018851
  22 H :   -0.020891
  23 H :    0.015059
  24 Au:    0.266379
  25 Cl:   -0.004822
  26 Cl:   -0.112390
  27 Cl:   -0.007230

  Mayer bond orders larger than 0.100000
B(  0-C ,  1-C ) :  -1.7729 B(  0-C ,  2-C ) :   0.6557 B(  0-C ,  6-C ) :  -0.9098
B(  0-C , 24-Au) :   1.6085 B(  0-C , 25-Cl) :   0.5841 B(  0-C , 27-Cl) :   0.8502
B(  1-C ,  2-C ) :  -0.1403 B(  1-C ,  6-C ) :   0.2615 B(  1-C , 10-C ) :   0.5669
B(  1-C , 12-C ) :   0.1239 B(  1-C , 24-Au) :  -0.9578 B(  1-C , 25-Cl) :  -0.7400
B(  1-C , 27-Cl) :  -1.0337 B(  2-C ,  3-H ) :   0.9302 B(  2-C ,  4-H ) :   0.9625
B(  2-C ,  5-H ) :   0.9727 B(  6-C ,  7-O ) :   0.3623 B(  6-C , 10-C ) :  -0.2287
B(  6-C , 12-C ) :  -0.1784 B(  6-C , 20-C ) :   0.4478 B(  6-C , 24-Au) :  -0.2989
B(  7-O ,  8-C ) :   1.0634 B(  7-O ,  9-O ) :   0.1020 B(  7-O , 10-C ) :   0.1497
B(  7-O , 20-C ) :   0.1059 B(  8-C ,  9-O ) :   1.6306 B(  8-C , 16-C ) :   0.6399
B(  9-O , 16-C ) :  -0.1007 B( 10-C , 11-O ) :   1.5993 B( 10-C , 12-C ) :   0.7925
B( 10-C , 13-H ) :  -0.1082 B( 12-C , 13-H ) :   0.9575 B( 12-C , 14-H ) :   0.9868
B( 12-C , 15-H ) :   0.9470 B( 16-C , 17-H ) :   0.9771 B( 16-C , 18-H ) :   0.9480
B( 16-C , 19-H ) :   0.9602 B( 20-C , 21-H ) :   0.8922 B( 20-C , 22-H ) :   0.9736
B( 20-C , 23-H ) :   0.9320 B( 24-Au, 25-Cl) :   0.9630 B( 24-Au, 26-Cl) :   0.7938
B( 24-Au, 27-Cl) :   0.9647 B( 25-Cl, 27-Cl) :   0.1169

FINAL SINGLE POINT ENERGY     -2092.111938687407

DIPOLE MOMENT
-------------
                                X             Y             Z
Electronic contribution:    196.15863     -27.65600      -6.39834
Nuclear contribution   :   -200.70985      26.65253       6.49371
                        -----------------------------------------
Total Dipole Moment    :     -4.55122      -1.00347       0.09538
                        -----------------------------------------
Magnitude (a.u.)       :      4.66151
Magnitude (Debye)      :     11.84861

Rotational constants in cm-1:     0.016870     0.006757     0.006678
Rotational constants in MHz :   505.750873   202.581775   200.209050

                             ****ORCA TERMINATED NORMALLY****
TOTAL RUN TIME: 0 days 0 hours 14 minutes 48 seconds 632 msec
