                         Program Version 4.2.0 -  RELEASE  -
|  1> #
|  2> # TMB26_C1 wB97M-V/Def2-TZVPPD
|  3> #
|  4> ! wb97m-v def2-tzvppd def2/jk grid4 nofinalgrid
|  5>
|  6> *xyz 0 1
|  7> C        2.167128    1.329895    0.039526
|  8> C        2.525644    0.739273   -1.166486
|  9> C        3.439975   -0.306708   -1.174383
| 10> C        3.999633   -0.766755    0.014468
| 11> C        3.640245   -0.158436    1.215781
| 12> C        2.734668    0.894978    1.231934
| 13> H        2.127840    1.087811   -2.109674
| 14> H        4.700013   -1.586902    0.006791
| 15> H        2.446371    1.320973    2.183519
| 16> C        1.181573    2.421289    0.068499
| 17> C        1.441057    3.589123    0.775147
| 18> C       -0.063177    2.327678   -0.606474
| 19> C        0.528793    4.632414    0.796916
| 20> H        2.386085    3.685262    1.294444
| 21> C       -0.980026    3.398239   -0.582106
| 22> C       -0.681931    4.545260    0.115481
| 23> H        0.768969    5.533734    1.348653
| 24> H       -1.927777    3.275890   -1.088947
| 25> H       -1.387173    5.365524    0.142831
| 26> C       -0.458921    1.154963   -1.244997
| 27> C       -0.929867    0.115196   -1.736149
| 28> H       -0.939302   -0.474790   -2.633558
| 29> Au      -1.934281   -0.752855   -0.093938
| 30> Cl      -0.307197   -2.360512   -0.181170
| 31> Cl      -3.051038   -1.907317    1.520981
| 32> Cl      -3.535590    0.885204   -0.082121
| 33> O        3.733505   -0.820421   -2.387318
| 34> O        4.122752   -0.537296    2.416831
| 35> C        4.611393   -1.919557   -2.452177
| 36> H        4.218896   -2.777901   -1.898414
| 37> H        4.691177   -2.180906   -3.505103
| 38> H        5.605429   -1.663635   -2.071314
| 39> C        4.983111   -1.650773    2.472584
| 40> H        5.218240   -1.797897    3.524384
| 41> H        4.497038   -2.550975    2.084317
| 42> H        5.911564   -1.470782    1.920934
| 43> *
| 44>
| 45> %maxcore 5000
| 46>
| 47> %pal
| 48> nprocs = 24
| 49> end
| 50>
| 51>
| 52>                          ****END OF INPUT****

CARTESIAN COORDINATES (ANGSTROEM)
---------------------------------
  C      2.167128    1.329895    0.039526
  C      2.525644    0.739273   -1.166486
  C      3.439975   -0.306708   -1.174383
  C      3.999633   -0.766755    0.014468
  C      3.640245   -0.158436    1.215781
  C      2.734668    0.894978    1.231934
  H      2.127840    1.087811   -2.109674
  H      4.700013   -1.586902    0.006791
  H      2.446371    1.320973    2.183519
  C      1.181573    2.421289    0.068499
  C      1.441057    3.589123    0.775147
  C     -0.063177    2.327678   -0.606474
  C      0.528793    4.632414    0.796916
  H      2.386085    3.685262    1.294444
  C     -0.980026    3.398239   -0.582106
  C     -0.681931    4.545260    0.115481
  H      0.768969    5.533734    1.348653
  H     -1.927777    3.275890   -1.088947
  H     -1.387173    5.365524    0.142831
  C     -0.458921    1.154963   -1.244997
  C     -0.929867    0.115196   -1.736149
  H     -0.939302   -0.474790   -2.633558
  Au    -1.934281   -0.752855   -0.093938
  Cl    -0.307197   -2.360512   -0.181170
  Cl    -3.051038   -1.907317    1.520981
  Cl    -3.535590    0.885204   -0.082121
  O      3.733505   -0.820421   -2.387318
  O      4.122752   -0.537296    2.416831
  C      4.611393   -1.919557   -2.452177
  H      4.218896   -2.777901   -1.898414
  H      4.691177   -2.180906   -3.505103
  H      5.605429   -1.663635   -2.071314
  C      4.983111   -1.650773    2.472584
  H      5.218240   -1.797897    3.524384
  H      4.497038   -2.550975    2.084317
  H      5.911564   -1.470782    1.920934

 Total Charge           Charge          ....    0
 Multiplicity           Mult            ....    1
 Number of Electrons    NEL             ....  196
 Basis Dimension        Dim             .... 1122

ORBITAL ENERGIES
----------------

  NO   OCC          E(Eh)            E(eV)
   0   2.0000    -101.838065     -2771.1546
   1   2.0000    -101.836640     -2771.1159
   2   2.0000    -101.831200     -2770.9678
   3   2.0000     -19.381894      -527.4082
   4   2.0000     -19.380713      -527.3760
   5   2.0000     -10.445679      -284.2414
   6   2.0000     -10.429956      -283.8135
   7   2.0000     -10.429762      -283.8083
   8   2.0000     -10.417197      -283.4663
   9   2.0000     -10.416641      -283.4512
  10   2.0000     -10.410377      -283.2807
  11   2.0000     -10.409272      -283.2507
  12   2.0000     -10.409178      -283.2481
  13   2.0000     -10.402496      -283.0663
  14   2.0000     -10.402467      -283.0655
  15   2.0000     -10.388075      -282.6739
  16   2.0000     -10.387746      -282.6650
  17   2.0000     -10.386084      -282.6197
  18   2.0000     -10.361056      -281.9387
  19   2.0000     -10.356359      -281.8109
  20   2.0000     -10.354907      -281.7713
  21   2.0000      -9.610231      -261.5077
  22   2.0000      -9.608709      -261.4663
  23   2.0000      -9.603093      -261.3134
  24   2.0000      -7.313668      -199.0150
  25   2.0000      -7.312269      -198.9770
  26   2.0000      -7.307420      -198.8450
  27   2.0000      -7.307119      -198.8368
  28   2.0000      -7.306991      -198.8333
  29   2.0000      -7.305843      -198.8021
  30   2.0000      -7.305403      -198.7901
  31   2.0000      -7.300073      -198.6451
  32   2.0000      -7.299449      -198.6281
  33   2.0000      -4.400304      -119.7384
  34   2.0000      -2.575832       -70.0919
  35   2.0000      -2.574405       -70.0531
  36   2.0000      -2.550447       -69.4012
  37   2.0000      -1.221678       -33.2435
  38   2.0000      -1.219538       -33.1853
  39   2.0000      -1.050451       -28.5842
  40   2.0000      -1.004503       -27.3339
  41   2.0000      -0.976060       -26.5599
  42   2.0000      -0.940952       -25.6046
  43   2.0000      -0.917657       -24.9707
  44   2.0000      -0.907824       -24.7031
  45   2.0000      -0.906120       -24.6568
  46   2.0000      -0.890815       -24.2403
  47   2.0000      -0.888315       -24.1723
  48   2.0000      -0.880443       -23.9581
  49   2.0000      -0.857267       -23.3274
  50   2.0000      -0.821174       -22.3453
  51   2.0000      -0.800296       -21.7772
  52   2.0000      -0.777941       -21.1689
  53   2.0000      -0.736379       -20.0379
  54   2.0000      -0.728877       -19.8337
  55   2.0000      -0.699795       -19.0424
  56   2.0000      -0.677803       -18.4440
  57   2.0000      -0.658355       -17.9148
  58   2.0000      -0.642597       -17.4860
  59   2.0000      -0.625075       -17.0092
  60   2.0000      -0.621398       -16.9091
  61   2.0000      -0.613695       -16.6995
  62   2.0000      -0.606507       -16.5039
  63   2.0000      -0.602308       -16.3896
  64   2.0000      -0.595778       -16.2119
  65   2.0000      -0.585587       -15.9346
  66   2.0000      -0.579370       -15.7655
  67   2.0000      -0.572894       -15.5892
  68   2.0000      -0.562361       -15.3026
  69   2.0000      -0.554896       -15.0995
  70   2.0000      -0.553496       -15.0614
  71   2.0000      -0.543233       -14.7821
  72   2.0000      -0.527792       -14.3619
  73   2.0000      -0.525328       -14.2949
  74   2.0000      -0.516197       -14.0464
  75   2.0000      -0.513899       -13.9839
  76   2.0000      -0.512371       -13.9423
  77   2.0000      -0.504470       -13.7273
  78   2.0000      -0.492746       -13.4083
  79   2.0000      -0.486043       -13.2259
  80   2.0000      -0.472132       -12.8474
  81   2.0000      -0.469746       -12.7824
  82   2.0000      -0.459099       -12.4927
  83   2.0000      -0.450991       -12.2721
  84   2.0000      -0.440891       -11.9973
  85   2.0000      -0.439668       -11.9640
  86   2.0000      -0.431045       -11.7293
  87   2.0000      -0.410589       -11.1727
  88   2.0000      -0.403075       -10.9682
  89   2.0000      -0.398345       -10.8395
  90   2.0000      -0.388847       -10.5811
  91   2.0000      -0.374524       -10.1913
  92   2.0000      -0.371745       -10.1157
  93   2.0000      -0.368408       -10.0249
  94   2.0000      -0.365645        -9.9497
  95   2.0000      -0.357638        -9.7318
  96   2.0000      -0.342707        -9.3255
  97   2.0000      -0.317612        -8.6427
  98   0.0000      -0.085807        -2.3349
  99   0.0000      -0.016628        -0.4525
 100   0.0000       0.014016         0.3814
 101   0.0000       0.018464         0.5024
 102   0.0000       0.023685         0.6445

MULLIKEN ATOMIC CHARGES
-----------------------
   0 C :    1.258507
   1 C :   -0.765868
   2 C :    0.595260
   3 C :   -0.386446
   4 C :    0.545149
   5 C :   -0.738672
   6 H :    0.272377
   7 H :    0.153161
   8 H :    0.165546
   9 C :    0.668330
  10 C :   -0.482673
  11 C :    0.632824
  12 C :   -0.258839
  13 H :    0.211038
  14 C :   -0.591999
  15 C :   -0.250961
  16 H :    0.178162
  17 H :    0.212902
  18 H :    0.172107
  19 C :    0.768268
  20 C :   -1.091752
  21 H :    0.364331
  22 Au:    0.366046
  23 Cl:   -0.407688
  24 Cl:   -0.315007
  25 Cl:   -0.425771
  26 O :   -0.478028
  27 O :   -0.477788
  28 C :   -0.844989
  29 H :    0.343121
  30 H :    0.207072
  31 H :    0.346068
  32 C :   -0.829240
  33 H :    0.205461
  34 H :    0.350805
  35 H :    0.329186
Sum of atomic charges:    0.0000000

LOEWDIN ATOMIC CHARGES
----------------------
   0 C :   -0.141541
   1 C :    0.108387
   2 C :   -0.225789
   3 C :    0.128173
   4 C :   -0.224868
   5 C :    0.117571
   6 H :    0.027389
   7 H :   -0.014689
   8 H :    0.028065
   9 C :   -0.076152
  10 C :    0.077007
  11 C :   -0.156240
  12 C :    0.063100
  13 H :    0.021660
  14 C :    0.071649
  15 C :    0.045342
  16 H :    0.014860
  17 H :    0.003771
  18 H :    0.011271
  19 C :   -0.041242
  20 C :   -0.068443
  21 H :   -0.037328
  22 Au:    0.215623
  23 Cl:   -0.065884
  24 Cl:   -0.118868
  25 Cl:   -0.046877
  26 O :   -0.018823
  27 O :   -0.016724
  28 C :    0.118762
  29 H :    0.015862
  30 H :    0.012583
  31 H :    0.012608
  32 C :    0.118878
  33 H :    0.012888
  34 H :    0.015925
  35 H :    0.012094

  Mayer bond orders larger than 0.100000
B(  0-C ,  1-C ) :   0.3065 B(  0-C ,  3-C ) :  -0.2823 B(  0-C ,  4-C ) :  -0.1963
B(  0-C ,  5-C ) :   0.5436 B(  0-C ,  6-H ) :  -0.2992 B(  0-C ,  8-H ) :  -0.3220
B(  0-C ,  9-C ) :  -1.3280 B(  0-C , 10-C ) :  -0.2909 B(  0-C , 11-C ) :  -0.3428
B(  0-C , 12-C ) :  -0.1192 B(  0-C , 14-C ) :  -0.1316 B(  0-C , 19-C ) :   0.1067
B(  0-C , 20-C ) :   0.1563 B(  1-C ,  2-C ) :   1.4897 B(  1-C ,  5-C ) :   0.2391
B(  1-C ,  6-H ) :   1.0384 B(  1-C , 10-C ) :   0.2684 B(  1-C , 11-C ) :  -0.1129
B(  1-C , 14-C ) :  -0.1376 B(  1-C , 19-C ) :   0.1995 B(  2-C ,  3-C ) :   1.2205
B(  2-C ,  6-H ) :   0.1189 B(  2-C , 10-C ) :  -0.2329 B(  2-C , 11-C ) :   0.1043
B(  2-C , 14-C ) :   0.1463 B(  2-C , 26-O ) :   0.5799 B(  3-C ,  4-C ) :   1.2283
B(  3-C ,  7-H ) :   1.0778 B(  3-C ,  9-C ) :   0.1154 B(  3-C , 10-C ) :   0.1233
B(  4-C ,  5-C ) :   1.4372 B(  4-C , 10-C ) :  -0.1312 B(  4-C , 11-C ) :   0.1042
B(  4-C , 14-C ) :   0.1007 B(  4-C , 27-O ) :   0.6338 B(  5-C ,  8-H ) :   1.1419
B(  5-C ,  9-C ) :  -0.1827 B(  5-C , 10-C ) :   0.2396 B(  5-C , 11-C ) :  -0.1838
B(  5-C , 20-C ) :   0.1036 B(  9-C , 10-C ) :   0.5465 B(  9-C , 11-C ) :   0.5263
B(  9-C , 13-H ) :  -0.2420 B(  9-C , 19-C ) :  -0.6512 B(  9-C , 20-C ) :   0.4589
B( 10-C , 11-C ) :  -0.1458 B( 10-C , 12-C ) :   1.3389 B( 10-C , 13-H ) :   1.1343
B( 11-C , 14-C ) :   0.8995 B( 11-C , 15-C ) :  -0.1212 B( 11-C , 17-H ) :  -0.1807
B( 11-C , 19-C ) :   0.1183 B( 11-C , 20-C ) :  -1.1035 B( 12-C , 15-C ) :   1.0870
B( 12-C , 16-H ) :   1.0439 B( 14-C , 15-C ) :   1.2335 B( 14-C , 17-H ) :   1.1340
B( 14-C , 19-C ) :  -0.3241 B( 14-C , 20-C ) :   0.1946 B( 15-C , 18-H ) :   1.0622
B( 19-C , 20-C ) :   0.9711 B( 19-C , 21-H ) :   0.1169 B( 19-C , 22-Au) :  -0.2365
B( 19-C , 23-Cl) :  -0.4824 B( 20-C , 21-H ) :   0.7695 B( 20-C , 22-Au) :   0.9647
B( 20-C , 23-Cl) :   0.4067 B( 22-Au, 23-Cl) :   0.8234 B( 22-Au, 24-Cl) :   0.8078
B( 22-Au, 25-Cl) :   0.8715 B( 23-Cl, 25-Cl) :   0.1181 B( 26-O , 28-C ) :   0.8469
B( 27-O , 32-C ) :   0.8309 B( 28-C , 29-H ) :   0.8816 B( 28-C , 30-H ) :   1.0463
B( 28-C , 31-H ) :   0.8765 B( 32-C , 33-H ) :   1.0483 B( 32-C , 34-H ) :   0.8818
B( 32-C , 35-H ) :   0.8888

FINAL SINGLE POINT ENERGY     -2284.798076707114

DIPOLE MOMENT
-------------
                                X             Y             Z
Electronic contribution:   -300.25203    -110.55356     -12.42221
Nuclear contribution   :    303.49748     112.54151      11.37787
                        -----------------------------------------
Total Dipole Moment    :      3.24545       1.98795      -1.04434
                        -----------------------------------------
Magnitude (a.u.)       :      3.94659
Magnitude (Debye)      :     10.03143

Rotational constants in cm-1:     0.007370     0.004054     0.003244
Rotational constants in MHz :   220.947502   121.548879    97.259691

                             ****ORCA TERMINATED NORMALLY****
TOTAL RUN TIME: 0 days 0 hours 27 minutes 37 seconds 688 msec
