                         Program Version 4.2.0 -  RELEASE  -
|  1> #
|  2> # TMB28_C1 wB97M-V/Def2-TZVPPD
|  3> #
|  4> ! wb97m-v def2-tzvppd def2/jk grid4 nofinalgrid
|  5>
|  6> *xyz 0 1
|  7> C       -0.405710    1.676464   -0.132905
|  8> C       -0.911585    0.669613    0.356254
|  9> C       -0.058307    2.983711   -0.650101
| 10> H       -0.949750    3.612259   -0.580916
| 11> H        0.745323    3.420879   -0.056180
| 12> H        0.255303    2.923577   -1.693087
| 13> C       -1.922079   -0.256189    0.903797
| 14> O       -2.980737   -0.448274   -0.040247
| 15> C       -3.644467    0.620195   -0.535863
| 16> O       -3.419291    1.755394   -0.218963
| 17> C       -1.315036   -1.659397    1.187254
| 18> O       -0.292489   -1.714090    1.813533
| 19> C       -2.070337   -2.858032    0.718520
| 20> H       -2.050973   -2.878590   -0.373534
| 21> H       -1.593281   -3.749478    1.117849
| 22> H       -3.118661   -2.810283    1.017394
| 23> C       -4.664667    0.177679   -1.534856
| 24> H       -5.268795    1.028888   -1.835351
| 25> H       -4.153929   -0.239550   -2.404894
| 26> H       -5.293840   -0.608504   -1.117133
| 27> C       -2.442836    0.266886    2.244835
| 28> H       -3.205737   -0.415249    2.624458
| 29> H       -1.614369    0.303689    2.950542
| 30> H       -2.869838    1.259004    2.124200
| 31> Au       1.189623    0.069390   -0.174295
| 32> Cl       0.186320   -1.092349   -1.885264
| 33> Cl       3.146088   -1.001725   -0.550079
| 34> Cl       2.155158    1.282412    1.507095
| 35> *
| 36>
| 37> %maxcore 5000
| 38>
| 39> %pal
| 40> nprocs = 24
| 41> end
| 42>
| 43>
| 44>                          ****END OF INPUT****

CARTESIAN COORDINATES (ANGSTROEM)
---------------------------------
  C     -0.405710    1.676464   -0.132905
  C     -0.911585    0.669613    0.356254
  C     -0.058307    2.983711   -0.650101
  H     -0.949750    3.612259   -0.580916
  H      0.745323    3.420879   -0.056180
  H      0.255303    2.923577   -1.693087
  C     -1.922079   -0.256189    0.903797
  O     -2.980737   -0.448274   -0.040247
  C     -3.644467    0.620195   -0.535863
  O     -3.419291    1.755394   -0.218963
  C     -1.315036   -1.659397    1.187254
  O     -0.292489   -1.714090    1.813533
  C     -2.070337   -2.858032    0.718520
  H     -2.050973   -2.878590   -0.373534
  H     -1.593281   -3.749478    1.117849
  H     -3.118661   -2.810283    1.017394
  C     -4.664667    0.177679   -1.534856
  H     -5.268795    1.028888   -1.835351
  H     -4.153929   -0.239550   -2.404894
  H     -5.293840   -0.608504   -1.117133
  C     -2.442836    0.266886    2.244835
  H     -3.205737   -0.415249    2.624458
  H     -1.614369    0.303689    2.950542
  H     -2.869838    1.259004    2.124200
  Au     1.189623    0.069390   -0.174295
  Cl     0.186320   -1.092349   -1.885264
  Cl     3.146088   -1.001725   -0.550079
  Cl     2.155158    1.282412    1.507095

 Total Charge           Charge          ....    0
 Multiplicity           Mult            ....    1
 Number of Electrons    NEL             ....  160
 Basis Dimension        Dim             ....  869

ORBITAL ENERGIES
----------------

  NO   OCC          E(Eh)            E(eV)
   0   2.0000    -101.852782     -2771.5551
   1   2.0000    -101.849593     -2771.4683
   2   2.0000    -101.847780     -2771.4190
   3   2.0000     -19.418728      -528.4105
   4   2.0000     -19.360180      -526.8173
   5   2.0000     -19.356373      -526.7137
   6   2.0000     -10.515442      -286.1397
   7   2.0000     -10.488174      -285.3977
   8   2.0000     -10.475921      -285.0643
   9   2.0000     -10.443627      -284.1856
  10   2.0000     -10.431617      -283.8587
  11   2.0000     -10.401106      -283.0285
  12   2.0000     -10.378625      -282.4167
  13   2.0000     -10.377156      -282.3768
  14   2.0000     -10.368058      -282.1292
  15   2.0000      -9.624984      -261.9091
  16   2.0000      -9.621656      -261.8186
  17   2.0000      -9.619587      -261.7623
  18   2.0000      -7.328439      -199.4170
  19   2.0000      -7.325419      -199.3348
  20   2.0000      -7.323825      -199.2914
  21   2.0000      -7.322202      -199.2472
  22   2.0000      -7.321694      -199.2334
  23   2.0000      -7.318669      -199.1511
  24   2.0000      -7.318252      -199.1398
  25   2.0000      -7.316494      -199.0919
  26   2.0000      -7.315801      -199.0731
  27   2.0000      -4.421680      -120.3200
  28   2.0000      -2.597575       -70.6836
  29   2.0000      -2.594730       -70.6062
  30   2.0000      -2.571934       -69.9859
  31   2.0000      -1.281892       -34.8821
  32   2.0000      -1.219698       -33.1897
  33   2.0000      -1.192395       -32.4467
  34   2.0000      -1.008110       -27.4321
  35   2.0000      -0.965275       -26.2665
  36   2.0000      -0.924377       -25.1536
  37   2.0000      -0.906108       -24.6565
  38   2.0000      -0.905266       -24.6335
  39   2.0000      -0.901954       -24.5434
  40   2.0000      -0.899824       -24.4855
  41   2.0000      -0.883448       -24.0398
  42   2.0000      -0.823777       -22.4161
  43   2.0000      -0.749980       -20.4080
  44   2.0000      -0.719853       -19.5882
  45   2.0000      -0.648427       -17.6446
  46   2.0000      -0.644770       -17.5451
  47   2.0000      -0.635556       -17.2944
  48   2.0000      -0.627602       -17.0779
  49   2.0000      -0.610562       -16.6142
  50   2.0000      -0.606000       -16.4901
  51   2.0000      -0.599372       -16.3097
  52   2.0000      -0.587891       -15.9973
  53   2.0000      -0.574060       -15.6210
  54   2.0000      -0.572033       -15.5658
  55   2.0000      -0.567278       -15.4364
  56   2.0000      -0.562858       -15.3161
  57   2.0000      -0.555423       -15.1138
  58   2.0000      -0.548376       -14.9221
  59   2.0000      -0.544406       -14.8140
  60   2.0000      -0.541832       -14.7440
  61   2.0000      -0.540923       -14.7193
  62   2.0000      -0.538251       -14.6465
  63   2.0000      -0.517239       -14.0748
  64   2.0000      -0.512641       -13.9497
  65   2.0000      -0.501584       -13.6488
  66   2.0000      -0.495186       -13.4747
  67   2.0000      -0.463547       -12.6138
  68   2.0000      -0.453867       -12.3504
  69   2.0000      -0.447971       -12.1899
  70   2.0000      -0.447173       -12.1682
  71   2.0000      -0.422789       -11.5047
  72   2.0000      -0.418031       -11.3752
  73   2.0000      -0.407223       -11.0811
  74   2.0000      -0.398407       -10.8412
  75   2.0000      -0.389068       -10.5871
  76   2.0000      -0.384392       -10.4598
  77   2.0000      -0.382985       -10.4216
  78   2.0000      -0.379495       -10.3266
  79   2.0000      -0.370847       -10.0913
  80   0.0000      -0.070997        -1.9319
  81   0.0000       0.011636         0.3166
  82   0.0000       0.018278         0.4974
  83   0.0000       0.026796         0.7292
  84   0.0000       0.030572         0.8319

MULLIKEN ATOMIC CHARGES
-----------------------
   0 C :    1.662778
   1 C :   -1.139157
   2 C :   -1.244466
   3 H :    0.292930
   4 H :    0.266837
   5 H :    0.275098
   6 C :    2.124610
   7 O :   -0.274362
   8 C :    0.826613
   9 O :   -0.552634
  10 C :    0.312892
  11 O :   -0.566552
  12 C :   -1.176148
  13 H :    0.265691
  14 H :    0.370024
  15 H :    0.309431
  16 C :   -1.119557
  17 H :    0.325235
  18 H :    0.256783
  19 H :    0.281944
  20 C :   -1.751278
  21 H :    0.374857
  22 H :    0.436245
  23 H :    0.370484
  24 Au:    0.192815
  25 Cl:   -0.402676
  26 Cl:   -0.308986
  27 Cl:   -0.409452
Sum of atomic charges:   -0.0000000

LOEWDIN ATOMIC CHARGES
----------------------
   0 C :   -0.166816
   1 C :   -0.112593
   2 C :    0.152277
   3 H :    0.013609
   4 H :   -0.014888
   5 H :    0.008857
   6 C :   -0.367153
   7 O :    0.034485
   8 C :   -0.458678
   9 O :    0.128639
  10 C :   -0.367713
  11 O :    0.092438
  12 C :    0.224152
  13 H :   -0.001495
  14 H :    0.009690
  15 H :    0.006457
  16 C :    0.247549
  17 H :    0.004517
  18 H :    0.011302
  19 H :    0.006252
  20 C :    0.246138
  21 H :    0.019536
  22 H :    0.018553
  23 H :    0.002810
  24 Au:    0.302942
  25 Cl:    0.021984
  26 Cl:   -0.068408
  27 Cl:    0.005558

  Mayer bond orders larger than 0.100000
B(  0-C ,  1-C ) :   0.3758 B(  0-C ,  2-C ) :   0.5776 B(  0-C ,  9-O ) :  -0.1494
B(  0-C , 10-C ) :  -0.1259 B(  0-C , 20-C ) :  -0.1354 B(  0-C , 25-Cl) :  -0.5169
B(  0-C , 27-Cl) :   0.3699 B(  1-C ,  2-C ) :  -0.2098 B(  1-C ,  6-C ) :   0.8329
B(  1-C ,  7-O ) :   0.1302 B(  1-C ,  8-C ) :  -0.1009 B(  1-C , 10-C ) :   0.1907
B(  1-C , 20-C ) :   0.1795 B(  1-C , 24-Au) :   0.7298 B(  1-C , 25-Cl) :   0.2068
B(  1-C , 27-Cl) :  -0.5708 B(  2-C ,  3-H ) :   1.0101 B(  2-C ,  4-H ) :   0.9394
B(  2-C ,  5-H ) :   0.9668 B(  6-C ,  7-O ) :   0.3374 B(  6-C ,  8-C ) :  -0.1145
B(  6-C ,  9-O ) :   0.2104 B(  6-C , 10-C ) :   0.1998 B(  6-C , 11-O ) :  -0.2277
B(  6-C , 20-C ) :   0.3565 B(  6-C , 24-Au) :  -0.1504 B(  6-C , 25-Cl) :   0.2537
B(  7-O ,  8-C ) :   0.9958 B(  8-C ,  9-O ) :   1.6062 B(  8-C , 16-C ) :   0.5959
B( 10-C , 11-O ) :   1.5744 B( 10-C , 12-C ) :   0.5790 B( 10-C , 20-C ) :  -0.1541
B( 10-C , 24-Au) :  -0.1408 B( 12-C , 13-H ) :   0.9964 B( 12-C , 14-H ) :   0.9513
B( 12-C , 15-H ) :   0.9537 B( 16-C , 17-H ) :   0.9917 B( 16-C , 18-H ) :   0.9732
B( 16-C , 19-H ) :   0.9774 B( 20-C , 21-H ) :   0.9221 B( 20-C , 22-H ) :   0.8722
B( 20-C , 23-H ) :   0.9152 B( 24-Au, 25-Cl) :   0.9053 B( 24-Au, 26-Cl) :   0.7992
B( 24-Au, 27-Cl) :   0.8752 B( 25-Cl, 27-Cl) :   0.1232

FINAL SINGLE POINT ENERGY     -2092.120732590989

DIPOLE MOMENT
-------------
                                X             Y             Z
Electronic contribution:    184.81284       8.38665     -26.29202
Nuclear contribution   :   -188.12551      -7.68230      26.09317
                        -----------------------------------------
Total Dipole Moment    :     -3.31267       0.70436      -0.19885
                        -----------------------------------------
Magnitude (a.u.)       :      3.39256
Magnitude (Debye)      :      8.62319

Rotational constants in cm-1:     0.016324     0.007365     0.006921
Rotational constants in MHz :   489.388468   220.811279   207.480820

                             ****ORCA TERMINATED NORMALLY****
TOTAL RUN TIME: 0 days 0 hours 14 minutes 56 seconds 327 msec
