                         Program Version 4.2.0 -  RELEASE  -
|  1> #
|  2> # TMB20_I1 wB97M-V/Def2-TZVPPD
|  3> #
|  4> ! wb97m-v def2-tzvppd def2/jk grid4 nofinalgrid
|  5>
|  6> *xyz 0 1
|  7> Re       0.721260    0.301703   -0.012347
|  8> C        1.851141    0.452958   -1.678261
|  9> C        1.971728    0.634914    1.425372
| 10> C        0.763580    2.214165   -0.101283
| 11> Br       1.710512   -2.064741    0.019177
| 12> O        0.816608    3.358474   -0.166463
| 13> O        2.493283    0.513036   -2.612271
| 14> O        2.652573    0.808904    2.320449
| 15> C       -1.780395   -0.133590    1.665167
| 16> C       -0.470905   -0.371203    1.638632
| 17> C       -2.365069    0.652857    0.526821
| 18> C       -3.493010   -0.159458   -0.075600
| 19> O       -3.300943   -1.161632   -0.733339
| 20> O       -4.693453    0.297769    0.229376
| 21> C       -1.280010    0.876972   -0.512116
| 22> O       -0.953000   -0.240509   -1.297416
| 23> H       -1.566319   -0.977006   -1.049921
| 24> C       -5.797043   -0.483161   -0.244906
| 25> H       -6.688437    0.024549    0.111717
| 26> H       -5.787691   -0.527184   -1.333247
| 27> H       -5.742358   -1.494851    0.155119
| 28> H       -0.050439   -0.962173    2.449658
| 29> H       -2.758296    1.619346    0.851818
| 30> H       -2.454065   -0.501260    2.435709
| 31> H       -1.435420    1.741704   -1.151672
| 32> *
| 33>
| 34> %maxcore 5000
| 35>
| 36> %pal
| 37> nprocs = 24
| 38> end
| 39>
| 40>
| 41>                          ****END OF INPUT****

CARTESIAN COORDINATES (ANGSTROEM)
---------------------------------
  Re     0.721260    0.301703   -0.012347
  C      1.851141    0.452958   -1.678261
  C      1.971728    0.634914    1.425372
  C      0.763580    2.214165   -0.101283
  Br     1.710512   -2.064741    0.019177
  O      0.816608    3.358474   -0.166463
  O      2.493283    0.513036   -2.612271
  O      2.652573    0.808904    2.320449
  C     -1.780395   -0.133590    1.665167
  C     -0.470905   -0.371203    1.638632
  C     -2.365069    0.652857    0.526821
  C     -3.493010   -0.159458   -0.075600
  O     -3.300943   -1.161632   -0.733339
  O     -4.693453    0.297769    0.229376
  C     -1.280010    0.876972   -0.512116
  O     -0.953000   -0.240509   -1.297416
  H     -1.566319   -0.977006   -1.049921
  C     -5.797043   -0.483161   -0.244906
  H     -6.688437    0.024549    0.111717
  H     -5.787691   -0.527184   -1.333247
  H     -5.742358   -1.494851    0.155119
  H     -0.050439   -0.962173    2.449658
  H     -2.758296    1.619346    0.851818
  H     -2.454065   -0.501260    2.435709
  H     -1.435420    1.741704   -1.151672

 Total Charge           Charge          ....    0
 Multiplicity           Mult            ....    1
 Number of Electrons    NEL             ....  160
 Basis Dimension        Dim             ....  825

ORBITAL ENERGIES
----------------

  NO   OCC          E(Eh)            E(eV)
   0   2.0000    -483.461206    -13155.6482
   1   2.0000     -62.766312     -1707.9582
   2   2.0000     -56.452816     -1536.1592
   3   2.0000     -56.451212     -1536.1156
   4   2.0000     -56.450906     -1536.1072
   5   2.0000     -19.441180      -529.0214
   6   2.0000     -19.433632      -528.8160
   7   2.0000     -19.423535      -528.5413
   8   2.0000     -19.422457      -528.5119
   9   2.0000     -19.421568      -528.4877
  10   2.0000     -19.363827      -526.9165
  11   2.0000     -10.517104      -286.1849
  12   2.0000     -10.494610      -285.5728
  13   2.0000     -10.494371      -285.5663
  14   2.0000     -10.493129      -285.5326
  15   2.0000     -10.456723      -284.5419
  16   2.0000     -10.425546      -283.6935
  17   2.0000     -10.397289      -282.9246
  18   2.0000     -10.352748      -281.7126
  19   2.0000     -10.336124      -281.2602
  20   2.0000      -8.848483      -240.7795
  21   2.0000      -6.631276      -180.4462
  22   2.0000      -6.625693      -180.2943
  23   2.0000      -6.624678      -180.2666
  24   2.0000      -3.371823       -91.7520
  25   2.0000      -2.712753       -73.8178
  26   2.0000      -2.711414       -73.7813
  27   2.0000      -2.710649       -73.7605
  28   2.0000      -2.706202       -73.6395
  29   2.0000      -2.706173       -73.6387
  30   2.0000      -1.929720       -52.5104
  31   2.0000      -1.925493       -52.3953
  32   2.0000      -1.913973       -52.0819
  33   2.0000      -1.298219       -35.3263
  34   2.0000      -1.291478       -35.1429
  35   2.0000      -1.286760       -35.0145
  36   2.0000      -1.281585       -34.8737
  37   2.0000      -1.241373       -33.7795
  38   2.0000      -1.191241       -32.4153
  39   2.0000      -0.974398       -26.5147
  40   2.0000      -0.891545       -24.2602
  41   2.0000      -0.855423       -23.2772
  42   2.0000      -0.845718       -23.0131
  43   2.0000      -0.807581       -21.9754
  44   2.0000      -0.735819       -20.0226
  45   2.0000      -0.727120       -19.7859
  46   2.0000      -0.710178       -19.3249
  47   2.0000      -0.703896       -19.1540
  48   2.0000      -0.696560       -18.9544
  49   2.0000      -0.666671       -18.1410
  50   2.0000      -0.656919       -17.8757
  51   2.0000      -0.645037       -17.5523
  52   2.0000      -0.633610       -17.2414
  53   2.0000      -0.628115       -17.0919
  54   2.0000      -0.619151       -16.8480
  55   2.0000      -0.614034       -16.7087
  56   2.0000      -0.603529       -16.4229
  57   2.0000      -0.599786       -16.3210
  58   2.0000      -0.598841       -16.2953
  59   2.0000      -0.591403       -16.0929
  60   2.0000      -0.589384       -16.0380
  61   2.0000      -0.574735       -15.6393
  62   2.0000      -0.570641       -15.5279
  63   2.0000      -0.567422       -15.4404
  64   2.0000      -0.550489       -14.9796
  65   2.0000      -0.539865       -14.6905
  66   2.0000      -0.533492       -14.5170
  67   2.0000      -0.503527       -13.7017
  68   2.0000      -0.487041       -13.2531
  69   2.0000      -0.484305       -13.1786
  70   2.0000      -0.451207       -12.2780
  71   2.0000      -0.444165       -12.0863
  72   2.0000      -0.423557       -11.5256
  73   2.0000      -0.408450       -11.1145
  74   2.0000      -0.400790       -10.9060
  75   2.0000      -0.384226       -10.4553
  76   2.0000      -0.367563       -10.0019
  77   2.0000      -0.349585        -9.5127
  78   2.0000      -0.336951        -9.1689
  79   2.0000      -0.324687        -8.8352
  80   0.0000      -0.015333        -0.4172
  81   0.0000       0.014124         0.3843
  82   0.0000       0.019231         0.5233
  83   0.0000       0.027333         0.7438
  84   0.0000       0.033933         0.9234

MULLIKEN ATOMIC CHARGES
-----------------------
   0 Re:    0.425458
   1 C :    0.515375
   2 C :    0.759866
   3 C :    0.063167
   4 Br:   -0.468345
   5 O :   -0.424566
   6 O :   -0.331931
   7 O :   -0.368647
   8 C :   -1.156811
   9 C :    0.053466
  10 C :    0.789225
  11 C :    0.629520
  12 O :   -0.630665
  13 O :   -0.326125
  14 C :   -0.761852
  15 O :   -0.431937
  16 H :    0.285407
  17 C :   -0.650442
  18 H :    0.215684
  19 H :    0.298381
  20 H :    0.304528
  21 H :    0.170900
  22 H :    0.274506
  23 H :    0.205348
  24 H :    0.560490
Sum of atomic charges:    0.0000000

LOEWDIN ATOMIC CHARGES
----------------------
   0 Re:    0.582367
   1 C :   -0.220224
   2 C :   -0.296390
   3 C :   -0.266157
   4 Br:    0.153748
   5 O :    0.151052
   6 O :    0.162982
   7 O :    0.171707
   8 C :   -0.041753
   9 C :   -0.094051
  10 C :   -0.114078
  11 C :   -0.429274
  12 O :    0.141116
  13 O :    0.045503
  14 C :   -0.158288
  15 O :    0.134703
  16 H :   -0.170283
  17 C :    0.180036
  18 H :    0.012362
  19 H :    0.014990
  20 H :    0.016527
  21 H :   -0.062961
  22 H :    0.054804
  23 H :    0.007667
  24 H :    0.023894

  Mayer bond orders larger than 0.100000
B(  0-Re,  1-C ) :   0.8423 B(  0-Re,  2-C ) :   1.1482 B(  0-Re,  3-C ) :   1.1852
B(  0-Re,  4-Br) :   0.6328 B(  0-Re,  8-C ) :   0.1060 B(  0-Re,  9-C ) :   0.5176
B(  0-Re, 14-C ) :   0.6721 B(  0-Re, 15-O ) :   0.3728 B(  1-C ,  6-O ) :   2.1086
B(  2-C ,  7-O ) :   2.0515 B(  3-C ,  5-O ) :   1.9305 B(  3-C , 14-C ) :   0.2626
B(  8-C ,  9-C ) :   2.1852 B(  8-C , 10-C ) :   0.4312 B(  8-C , 11-C ) :   0.1263
B(  8-C , 14-C ) :   0.3169 B(  8-C , 23-H ) :   1.0465 B(  9-C , 10-C ) :  -0.1162
B(  9-C , 21-H ) :   0.9817 B( 10-C , 11-C ) :   0.6495 B( 10-C , 14-C ) :   0.6344
B( 10-C , 22-H ) :   1.0104 B( 11-C , 12-O ) :   1.3977 B( 11-C , 13-O ) :   0.8099
B( 11-C , 14-C ) :   0.1228 B( 13-O , 17-C ) :   0.7570 B( 14-C , 15-O ) :   0.6748
B( 14-C , 24-H ) :   0.6434 B( 15-O , 16-H ) :   0.8544 B( 17-C , 18-H ) :   0.9938
B( 17-C , 19-H ) :   0.9220 B( 17-C , 20-H ) :   0.9058

FINAL SINGLE POINT ENERGY     -3451.546191115506

DIPOLE MOMENT
-------------
                                X             Y             Z
Electronic contribution:    123.14100      30.02825      -3.28949
Nuclear contribution   :   -125.53088     -28.89018       3.09124
                        -----------------------------------------
Total Dipole Moment    :     -2.38988       1.13807      -0.19825
                        -----------------------------------------
Magnitude (a.u.)       :      2.65443
Magnitude (Debye)      :      6.74703

Rotational constants in cm-1:     0.016025     0.007116     0.006337
Rotational constants in MHz :   480.407323   213.341783   189.987107

                             ****ORCA TERMINATED NORMALLY****
TOTAL RUN TIME: 0 days 0 hours 11 minutes 58 seconds 63 msec
