                         Program Version 4.2.0 -  RELEASE  -
|  1> #
|  2> # TMB29_C2 wB97M-V/Def2-TZVPPD
|  3> #
|  4> ! wb97m-v def2-tzvppd def2/jk grid4 nofinalgrid
|  5>
|  6> *xyz 1 1
|  7> C        0.315194   -1.265840   -0.205097
|  8> C        1.442343   -0.626838    0.044790
|  9> C        0.309905   -2.700146   -0.639207
| 10> H        1.304587   -3.137496   -0.733589
| 11> H       -0.263876   -3.299051    0.071387
| 12> H       -0.202915   -2.796953   -1.598442
| 13> C        1.798588    0.767906    0.516696
| 14> O        3.282693    0.709723    0.495405
| 15> C        3.659486   -0.471899    0.173285
| 16> O        2.736849   -1.295199   -0.102354
| 17> C        1.344136    1.838147   -0.506262
| 18> O        0.287215    2.374668   -0.320274
| 19> C        2.219880    2.103298   -1.689301
| 20> H        2.470349    1.173144   -2.206730
| 21> H        1.702341    2.771806   -2.372494
| 22> H        3.157528    2.564787   -1.369834
| 23> C        5.078697   -0.839761    0.144564
| 24> H        5.213504   -1.795905   -0.353509
| 25> H        5.652959   -0.054437   -0.347617
| 26> H        5.438400   -0.910855    1.175413
| 27> C        1.364152    1.101522    1.920814
| 28> H        1.754676    2.072052    2.227431
| 29> H        0.275994    1.149047    1.931402
| 30> H        1.690154    0.330993    2.618895
| 31> Au      -1.496985   -0.316099   -0.013075
| 32> P       -3.546234    0.682452    0.150815
| 33> H       -3.831804    1.712524   -0.762172
| 34> H       -4.687337   -0.122280   -0.012331
| 35> H       -3.867595    1.325764    1.359005
| 36> *
| 37>
| 38> %maxcore 5000
| 39>
| 40> %pal
| 41> nprocs = 24
| 42> end
| 43>
| 44>
| 45>                          ****END OF INPUT****

CARTESIAN COORDINATES (ANGSTROEM)
---------------------------------
  C      0.315194   -1.265840   -0.205097
  C      1.442343   -0.626838    0.044790
  C      0.309905   -2.700146   -0.639207
  H      1.304587   -3.137496   -0.733589
  H     -0.263876   -3.299051    0.071387
  H     -0.202915   -2.796953   -1.598442
  C      1.798588    0.767906    0.516696
  O      3.282693    0.709723    0.495405
  C      3.659486   -0.471899    0.173285
  O      2.736849   -1.295199   -0.102354
  C      1.344136    1.838147   -0.506262
  O      0.287215    2.374668   -0.320274
  C      2.219880    2.103298   -1.689301
  H      2.470349    1.173144   -2.206730
  H      1.702341    2.771806   -2.372494
  H      3.157528    2.564787   -1.369834
  C      5.078697   -0.839761    0.144564
  H      5.213504   -1.795905   -0.353509
  H      5.652959   -0.054437   -0.347617
  H      5.438400   -0.910855    1.175413
  C      1.364152    1.101522    1.920814
  H      1.754676    2.072052    2.227431
  H      0.275994    1.149047    1.931402
  H      1.690154    0.330993    2.618895
  Au    -1.496985   -0.316099   -0.013075
  P     -3.546234    0.682452    0.150815
  H     -3.831804    1.712524   -0.762172
  H     -4.687337   -0.122280   -0.012331
  H     -3.867595    1.325764    1.359005

 Total Charge           Charge          ....    1
 Multiplicity           Mult            ....    1
 Number of Electrons    NEL             ....  126
 Basis Dimension        Dim             ....  815

ORBITAL ENERGIES
----------------

  NO   OCC          E(Eh)            E(eV)
   0   2.0000     -77.531289     -2109.7336
   1   2.0000     -19.587945      -533.0151
   2   2.0000     -19.583973      -532.9070
   3   2.0000     -19.464722      -529.6620
   4   2.0000     -10.693904      -290.9959
   5   2.0000     -10.587437      -288.0988
   6   2.0000     -10.578436      -287.8539
   7   2.0000     -10.546345      -286.9806
   8   2.0000     -10.522932      -286.3435
   9   2.0000     -10.482791      -285.2512
  10   2.0000     -10.474387      -285.0226
  11   2.0000     -10.474378      -285.0223
  12   2.0000     -10.451582      -284.4020
  13   2.0000      -6.881982      -187.2683
  14   2.0000      -4.994163      -135.8981
  15   2.0000      -4.994134      -135.8973
  16   2.0000      -4.991507      -135.8258
  17   2.0000      -4.417474      -120.2056
  18   2.0000      -2.598951       -70.7211
  19   2.0000      -2.582328       -70.2687
  20   2.0000      -2.581518       -70.2467
  21   2.0000      -1.490423       -40.5565
  22   2.0000      -1.378466       -37.5100
  23   2.0000      -1.321704       -35.9654
  24   2.0000      -1.127346       -30.6766
  25   2.0000      -1.046754       -28.4836
  26   2.0000      -1.037146       -28.2222
  27   2.0000      -1.004664       -27.3383
  28   2.0000      -0.950200       -25.8562
  29   2.0000      -0.920354       -25.0441
  30   2.0000      -0.919679       -25.0257
  31   2.0000      -0.904083       -24.6014
  32   2.0000      -0.855639       -23.2831
  33   2.0000      -0.840926       -22.8828
  34   2.0000      -0.801263       -21.8035
  35   2.0000      -0.760852       -20.7038
  36   2.0000      -0.731075       -19.8936
  37   2.0000      -0.708475       -19.2786
  38   2.0000      -0.703703       -19.1487
  39   2.0000      -0.693524       -18.8717
  40   2.0000      -0.688500       -18.7350
  41   2.0000      -0.684472       -18.6254
  42   2.0000      -0.677097       -18.4247
  43   2.0000      -0.673169       -18.3179
  44   2.0000      -0.660287       -17.9673
  45   2.0000      -0.646540       -17.5933
  46   2.0000      -0.645061       -17.5530
  47   2.0000      -0.643721       -17.5165
  48   2.0000      -0.639764       -17.4089
  49   2.0000      -0.631729       -17.1902
  50   2.0000      -0.621297       -16.9063
  51   2.0000      -0.620310       -16.8795
  52   2.0000      -0.611049       -16.6275
  53   2.0000      -0.597481       -16.2583
  54   2.0000      -0.591885       -16.1060
  55   2.0000      -0.555031       -15.1032
  56   2.0000      -0.540369       -14.7042
  57   2.0000      -0.533698       -14.5227
  58   2.0000      -0.532572       -14.4920
  59   2.0000      -0.509138       -13.8544
  60   2.0000      -0.506423       -13.7805
  61   2.0000      -0.468124       -12.7383
  62   2.0000      -0.461114       -12.5475
  63   0.0000      -0.121381        -3.3030
  64   0.0000      -0.088153        -2.3988
  65   0.0000      -0.083156        -2.2628
  66   0.0000      -0.072857        -1.9825
  67   0.0000      -0.066942        -1.8216

MULLIKEN ATOMIC CHARGES
-----------------------
   0 C :    0.340908
   1 C :   -0.319035
   2 C :   -1.115065
   3 H :    0.242753
   4 H :    0.322726
   5 H :    0.314827
   6 C :    2.130792
   7 O :   -0.345551
   8 C :    0.897581
   9 O :   -0.427467
  10 C :    0.464678
  11 O :   -0.520858
  12 C :   -1.263953
  13 H :    0.269692
  14 H :    0.344788
  15 H :    0.315679
  16 C :   -1.034779
  17 H :    0.278257
  18 H :    0.287766
  19 H :    0.276825
  20 C :   -1.352705
  21 H :    0.346851
  22 H :    0.225447
  23 H :    0.344218
  24 Au:   -0.345451
  25 P :   -0.160357
  26 H :    0.165403
  27 H :    0.156330
  28 H :    0.159702
Sum of atomic charges:    1.0000000

LOEWDIN ATOMIC CHARGES
----------------------
   0 C :   -0.257871
   1 C :   -0.181327
   2 C :    0.094745
   3 H :   -0.016131
   4 H :   -0.010421
   5 H :   -0.011661
   6 C :   -0.273098
   7 O :    0.163362
   8 C :   -0.299833
   9 O :    0.185852
  10 C :   -0.326746
  11 O :    0.101389
  12 C :    0.240910
  13 H :    0.011477
  14 H :    0.013888
  15 H :    0.013225
  16 C :    0.306916
  17 H :    0.026428
  18 H :    0.030758
  19 H :    0.037359
  20 C :    0.231604
  21 H :    0.022758
  22 H :   -0.010060
  23 H :    0.020493
  24 Au:    0.555186
  25 P :    0.828128
  26 H :   -0.163443
  27 H :   -0.167843
  28 H :   -0.166044

  Mayer bond orders larger than 0.100000
B(  0-C ,  1-C ) :   0.6198 B(  0-C ,  2-C ) :   0.2964 B(  0-C ,  6-C ) :   0.1243
B(  0-C ,  9-O ) :   0.1681 B(  0-C , 24-Au) :   1.2805 B(  1-C ,  2-C ) :   0.1092
B(  1-C ,  9-O ) :   0.5719 B(  1-C , 10-C ) :   0.3482 B(  1-C , 24-Au) :  -0.2941
B(  2-C ,  3-H ) :   1.0052 B(  2-C ,  4-H ) :   0.9367 B(  2-C ,  5-H ) :   0.9496
B(  6-C ,  7-O ) :   0.5390 B(  6-C ,  8-C ) :  -0.1078 B(  6-C , 10-C ) :   0.2308
B(  6-C , 20-C ) :   0.5538 B(  7-O ,  8-C ) :   1.2083 B(  7-O ,  9-O ) :   0.1068
B(  8-C ,  9-O ) :   1.1393 B(  8-C , 16-C ) :   0.7822 B( 10-C , 11-O ) :   1.5274
B( 10-C , 12-C ) :   0.6099 B( 10-C , 13-H ) :  -0.1014 B( 10-C , 20-C ) :  -0.1227
B( 12-C , 13-H ) :   0.9583 B( 12-C , 14-H ) :   0.9624 B( 12-C , 15-H ) :   0.9597
B( 16-C , 17-H ) :   1.0043 B( 16-C , 18-H ) :   0.9520 B( 16-C , 19-H ) :   0.8971
B( 20-C , 21-H ) :   0.8859 B( 20-C , 22-H ) :   1.0259 B( 20-C , 23-H ) :   0.9417
B( 24-Au, 25-P ) :   0.8768 B( 25-P , 26-H ) :   0.9351 B( 25-P , 27-H ) :   0.9416
B( 25-P , 28-H ) :   0.9360

FINAL SINGLE POINT ENERGY     -1054.441177162719

DIPOLE MOMENT
-------------
                                X             Y             Z
Electronic contribution:   -213.29488     -43.40065      -1.30533
Nuclear contribution   :    216.19870      43.43467       1.47956
                        -----------------------------------------
Total Dipole Moment    :      2.90382       0.03402       0.17424
                        -----------------------------------------
Magnitude (a.u.)       :      2.90924
Magnitude (Debye)      :      7.39471

Rotational constants in cm-1:     0.028648     0.008219     0.007101
Rotational constants in MHz :   858.848987   246.390678   212.872024

                             ****ORCA TERMINATED NORMALLY****
TOTAL RUN TIME: 0 days 0 hours 9 minutes 40 seconds 469 msec
