                         Program Version 4.2.0 -  RELEASE  -
|  1> #
|  2> # TMB20_T2 wB97M-V/Def2-TZVPPD
|  3> #
|  4> ! wb97m-v def2-tzvppd def2/jk grid4 nofinalgrid
|  5>
|  6> *xyz 0 1
|  7> Re       0.995979    0.090170   -0.058185
|  8> C        2.014396   -1.161086   -1.123855
|  9> C        1.992692   -0.479631    1.452527
| 10> C        2.318376    1.423242   -0.367549
| 11> Br      -0.834689   -1.732689    0.254349
| 12> O        3.132368    2.217573   -0.550268
| 13> O        2.612239   -1.888693   -1.769425
| 14> O        2.568963   -0.789175    2.393169
| 15> C       -1.540273    1.685786    1.546594
| 16> C       -0.263771    1.318522    1.475095
| 17> C       -2.014636    1.773094    0.144138
| 18> C       -2.942101    0.711821   -0.394874
| 19> O       -2.841029    0.284728   -1.529710
| 20> O       -3.882762    0.367872    0.447794
| 21> C       -0.602735    1.743713   -0.435058
| 22> O       -0.382838    0.990264   -1.561710
| 23> H       -1.229741    0.476538   -1.736592
| 24> C       -4.752144   -0.688497    0.013665
| 25> H       -5.447661   -0.845693    0.832416
| 26> H       -5.279179   -0.395656   -0.893281
| 27> H       -4.161178   -1.583930   -0.173849
| 28> H        0.422554    1.379477    2.313653
| 29> H       -2.484103    2.733887   -0.106082
| 30> H       -2.090878    1.979492    2.431124
| 31> H       -0.128477    2.714877   -0.508669
| 32> *
| 33>
| 34> %maxcore 5000
| 35>
| 36> %pal
| 37> nprocs = 24
| 38> end
| 39>
| 40>
| 41>                          ****END OF INPUT****

CARTESIAN COORDINATES (ANGSTROEM)
---------------------------------
  Re     0.995979    0.090170   -0.058185
  C      2.014396   -1.161086   -1.123855
  C      1.992692   -0.479631    1.452527
  C      2.318376    1.423242   -0.367549
  Br    -0.834689   -1.732689    0.254349
  O      3.132368    2.217573   -0.550268
  O      2.612239   -1.888693   -1.769425
  O      2.568963   -0.789175    2.393169
  C     -1.540273    1.685786    1.546594
  C     -0.263771    1.318522    1.475095
  C     -2.014636    1.773094    0.144138
  C     -2.942101    0.711821   -0.394874
  O     -2.841029    0.284728   -1.529710
  O     -3.882762    0.367872    0.447794
  C     -0.602735    1.743713   -0.435058
  O     -0.382838    0.990264   -1.561710
  H     -1.229741    0.476538   -1.736592
  C     -4.752144   -0.688497    0.013665
  H     -5.447661   -0.845693    0.832416
  H     -5.279179   -0.395656   -0.893281
  H     -4.161178   -1.583930   -0.173849
  H      0.422554    1.379477    2.313653
  H     -2.484103    2.733887   -0.106082
  H     -2.090878    1.979492    2.431124
  H     -0.128477    2.714877   -0.508669

 Total Charge           Charge          ....    0
 Multiplicity           Mult            ....    1
 Number of Electrons    NEL             ....  160
 Basis Dimension        Dim             ....  825

ORBITAL ENERGIES
----------------

  NO   OCC          E(Eh)            E(eV)
   0   2.0000    -483.444068    -13155.1819
   1   2.0000     -62.749295     -1707.4951
   2   2.0000     -56.435490     -1535.6878
   3   2.0000     -56.434246     -1535.6539
   4   2.0000     -56.434159     -1535.6515
   5   2.0000     -19.432382      -528.7820
   6   2.0000     -19.422359      -528.5092
   7   2.0000     -19.414492      -528.2952
   8   2.0000     -19.407991      -528.1183
   9   2.0000     -19.399137      -527.8773
  10   2.0000     -19.367744      -527.0231
  11   2.0000     -10.525998      -286.4270
  12   2.0000     -10.506633      -285.9000
  13   2.0000     -10.472610      -284.9742
  14   2.0000     -10.468205      -284.8543
  15   2.0000     -10.461769      -284.6792
  16   2.0000     -10.420453      -283.5550
  17   2.0000     -10.418957      -283.5142
  18   2.0000     -10.403155      -283.0843
  19   2.0000     -10.389316      -282.7077
  20   2.0000      -8.831474      -240.3166
  21   2.0000      -6.613274      -179.9563
  22   2.0000      -6.608867      -179.8364
  23   2.0000      -6.608566      -179.8282
  24   2.0000      -3.340647       -90.9036
  25   2.0000      -2.695043       -73.3359
  26   2.0000      -2.693727       -73.3001
  27   2.0000      -2.693484       -73.2934
  28   2.0000      -2.690074       -73.2006
  29   2.0000      -2.690068       -73.2005
  30   2.0000      -1.901327       -51.7377
  31   2.0000      -1.891766       -51.4776
  32   2.0000      -1.890593       -51.4456
  33   2.0000      -1.291683       -35.1485
  34   2.0000      -1.271276       -34.5932
  35   2.0000      -1.264718       -34.4147
  36   2.0000      -1.259469       -34.2719
  37   2.0000      -1.254610       -34.1397
  38   2.0000      -1.196372       -32.5549
  39   2.0000      -1.022226       -27.8162
  40   2.0000      -0.904820       -24.6214
  41   2.0000      -0.860024       -23.4025
  42   2.0000      -0.830112       -22.5885
  43   2.0000      -0.828754       -22.5515
  44   2.0000      -0.738007       -20.0822
  45   2.0000      -0.722575       -19.6623
  46   2.0000      -0.708413       -19.2769
  47   2.0000      -0.689699       -18.7677
  48   2.0000      -0.684154       -18.6168
  49   2.0000      -0.683619       -18.6022
  50   2.0000      -0.677284       -18.4298
  51   2.0000      -0.644588       -17.5401
  52   2.0000      -0.639191       -17.3933
  53   2.0000      -0.629851       -17.1391
  54   2.0000      -0.615359       -16.7448
  55   2.0000      -0.599363       -16.3095
  56   2.0000      -0.587384       -15.9835
  57   2.0000      -0.585914       -15.9435
  58   2.0000      -0.583771       -15.8852
  59   2.0000      -0.575789       -15.6680
  60   2.0000      -0.571290       -15.5456
  61   2.0000      -0.562598       -15.3091
  62   2.0000      -0.560128       -15.2418
  63   2.0000      -0.555722       -15.1220
  64   2.0000      -0.554327       -15.0840
  65   2.0000      -0.544993       -14.8300
  66   2.0000      -0.541762       -14.7421
  67   2.0000      -0.514962       -14.0128
  68   2.0000      -0.501799       -13.6546
  69   2.0000      -0.497769       -13.5450
  70   2.0000      -0.452236       -12.3060
  71   2.0000      -0.448876       -12.2145
  72   2.0000      -0.433419       -11.7939
  73   2.0000      -0.415821       -11.3151
  74   2.0000      -0.386561       -10.5189
  75   2.0000      -0.375972       -10.2307
  76   2.0000      -0.360445        -9.8082
  77   2.0000      -0.339896        -9.2490
  78   2.0000      -0.318496        -8.6667
  79   2.0000      -0.314338        -8.5536
  80   0.0000      -0.011550        -0.3143
  81   0.0000       0.009922         0.2700
  82   0.0000       0.024070         0.6550
  83   0.0000       0.028761         0.7826
  84   0.0000       0.034502         0.9388

MULLIKEN ATOMIC CHARGES
-----------------------
   0 Re:    0.065369
   1 C :    0.645042
   2 C :    0.463341
   3 C :    0.309307
   4 Br:   -0.492359
   5 O :   -0.454349
   6 O :   -0.386847
   7 O :   -0.427474
   8 C :   -0.658567
   9 C :   -0.166096
  10 C :    0.756076
  11 C :    0.268187
  12 O :   -0.614472
  13 O :   -0.274493
  14 C :   -0.518574
  15 O :   -0.516179
  16 H :    0.408401
  17 C :   -0.602569
  18 H :    0.220672
  19 H :    0.294601
  20 H :    0.287665
  21 H :    0.205181
  22 H :    0.399862
  23 H :    0.187521
  24 H :    0.600754
Sum of atomic charges:   -0.0000000

LOEWDIN ATOMIC CHARGES
----------------------
   0 Re:    0.526238
   1 C :   -0.266793
   2 C :   -0.310971
   3 C :   -0.258310
   4 Br:    0.168745
   5 O :    0.110361
   6 O :    0.140505
   7 O :    0.136297
   8 C :    0.016760
   9 C :    0.029451
  10 C :   -0.090717
  11 C :   -0.485016
  12 O :    0.119333
  13 O :    0.042412
  14 C :   -0.145732
  15 O :    0.144968
  16 H :   -0.208842
  17 C :    0.191487
  18 H :    0.014427
  19 H :    0.015271
  20 H :    0.005554
  21 H :   -0.032024
  22 H :    0.073778
  23 H :    0.019610
  24 H :    0.043209

  Mayer bond orders larger than 0.100000
B(  0-Re,  1-C ) :   1.1851 B(  0-Re,  2-C ) :   1.4068 B(  0-Re,  3-C ) :   1.3868
B(  0-Re,  4-Br) :   0.4912 B(  0-Re,  9-C ) :   0.3310 B(  0-Re, 14-C ) :   0.4488
B(  0-Re, 15-O ) :   0.3864 B(  1-C ,  2-C ) :  -0.1670 B(  1-C ,  6-O ) :   2.0316
B(  2-C ,  7-O ) :   1.9812 B(  2-C ,  9-C ) :   0.1331 B(  3-C ,  5-O ) :   1.8989
B(  4-Br, 11-C ) :   0.1701 B(  8-C ,  9-C ) :   1.7054 B(  8-C , 10-C ) :   0.7360
B(  8-C , 14-C ) :   0.1336 B(  8-C , 23-H ) :   1.0725 B(  9-C , 14-C ) :   0.2427
B(  9-C , 21-H ) :   1.0181 B( 10-C , 11-C ) :   0.3981 B( 10-C , 14-C ) :   0.8526
B( 10-C , 22-H ) :   0.8806 B( 11-C , 12-O ) :   1.3985 B( 11-C , 13-O ) :   0.8660
B( 11-C , 14-C ) :   0.3071 B( 13-O , 17-C ) :   0.7197 B( 14-C , 15-O ) :   0.6445
B( 14-C , 24-H ) :   0.6849 B( 15-O , 16-H ) :   0.8221 B( 17-C , 18-H ) :   1.0019
B( 17-C , 19-H ) :   0.9195 B( 17-C , 20-H ) :   0.9022

FINAL SINGLE POINT ENERGY     -3451.519115943448

DIPOLE MOMENT
-------------
                                X             Y             Z
Electronic contribution:    141.20611      -0.63357      -7.48017
Nuclear contribution   :   -143.25315       2.56406       7.67326
                        -----------------------------------------
Total Dipole Moment    :     -2.04703       1.93049       0.19309
                        -----------------------------------------
Magnitude (a.u.)       :      2.82036
Magnitude (Debye)      :      7.16878

Rotational constants in cm-1:     0.017495     0.008280     0.007326
Rotational constants in MHz :   524.496520   248.224980   219.630549

                             ****ORCA TERMINATED NORMALLY****
TOTAL RUN TIME: 0 days 0 hours 12 minutes 9 seconds 346 msec
