                         Program Version 4.2.0 -  RELEASE  -
|  1> #
|  2> # TMB29_T1 wB97M-V/Def2-TZVPPD
|  3> #
|  4> ! wb97m-v def2-tzvppd def2/jk grid4 nofinalgrid
|  5>
|  6> *xyz 1 1
|  7> C        0.302195   -1.452011   -0.105192
|  8> C        1.172851   -0.582511    0.135564
|  9> C        0.213900   -2.914548   -0.330337
| 10> H        1.214756   -3.345744   -0.317276
| 11> H       -0.388020   -3.382295    0.449588
| 12> H       -0.265099   -3.130327   -1.285361
| 13> C        1.829635    0.694580    0.494281
| 14> O        3.171960    0.697894   -0.020842
| 15> C        3.732653   -0.510299   -0.087290
| 16> O        3.070225   -1.500320    0.142290
| 17> C        1.080449    1.884401   -0.190647
| 18> O        0.030957    2.232541    0.278513
| 19> C        1.716450    2.521139   -1.379228
| 20> H        1.946637    1.771224   -2.139595
| 21> H        1.044796    3.276244   -1.779459
| 22> H        2.667103    2.978996   -1.097340
| 23> C        5.172060   -0.490501   -0.447138
| 24> H        5.507658   -1.496958   -0.678577
| 25> H        5.341426    0.179166   -1.290238
| 26> H        5.741456   -0.101237    0.400021
| 27> C        1.875471    0.903584    2.001010
| 28> H        2.434564    1.811885    2.227294
| 29> H        0.861108    1.010944    2.380408
| 30> H        2.353249    0.052039    2.484190
| 31> Au      -1.471331   -0.309724   -0.041930
| 32> P       -3.515153    0.680562    0.009165
| 33> H       -3.799713    1.607377   -1.007127
| 34> H       -4.633094   -0.165367   -0.073799
| 35> H       -3.823490    1.429925    1.156436
| 36> *
| 37>
| 38> %maxcore 5000
| 39>
| 40> %pal
| 41> nprocs = 24
| 42> end
| 43>
| 44>
| 45>                          ****END OF INPUT****

CARTESIAN COORDINATES (ANGSTROEM)
---------------------------------
  C      0.302195   -1.452011   -0.105192
  C      1.172851   -0.582511    0.135564
  C      0.213900   -2.914548   -0.330337
  H      1.214756   -3.345744   -0.317276
  H     -0.388020   -3.382295    0.449588
  H     -0.265099   -3.130327   -1.285361
  C      1.829635    0.694580    0.494281
  O      3.171960    0.697894   -0.020842
  C      3.732653   -0.510299   -0.087290
  O      3.070225   -1.500320    0.142290
  C      1.080449    1.884401   -0.190647
  O      0.030957    2.232541    0.278513
  C      1.716450    2.521139   -1.379228
  H      1.946637    1.771224   -2.139595
  H      1.044796    3.276244   -1.779459
  H      2.667103    2.978996   -1.097340
  C      5.172060   -0.490501   -0.447138
  H      5.507658   -1.496958   -0.678577
  H      5.341426    0.179166   -1.290238
  H      5.741456   -0.101237    0.400021
  C      1.875471    0.903584    2.001010
  H      2.434564    1.811885    2.227294
  H      0.861108    1.010944    2.380408
  H      2.353249    0.052039    2.484190
  Au    -1.471331   -0.309724   -0.041930
  P     -3.515153    0.680562    0.009165
  H     -3.799713    1.607377   -1.007127
  H     -4.633094   -0.165367   -0.073799
  H     -3.823490    1.429925    1.156436

 Total Charge           Charge          ....    1
 Multiplicity           Mult            ....    1
 Number of Electrons    NEL             ....  126
 Basis Dimension        Dim             ....  815

ORBITAL ENERGIES
----------------

  NO   OCC          E(Eh)            E(eV)
   0   2.0000     -77.555391     -2110.3895
   1   2.0000     -19.535864      -531.5979
   2   2.0000     -19.484158      -530.1909
   3   2.0000     -19.472957      -529.8861
   4   2.0000     -10.631280      -289.2918
   5   2.0000     -10.592572      -288.2386
   6   2.0000     -10.587625      -288.1039
   7   2.0000     -10.553930      -287.1870
   8   2.0000     -10.511043      -286.0200
   9   2.0000     -10.479591      -285.1642
  10   2.0000     -10.479529      -285.1625
  11   2.0000     -10.473897      -285.0092
  12   2.0000     -10.472497      -284.9711
  13   2.0000      -6.905874      -187.9184
  14   2.0000      -5.017962      -136.5457
  15   2.0000      -5.017938      -136.5450
  16   2.0000      -5.015698      -136.4841
  17   2.0000      -4.445790      -120.9761
  18   2.0000      -2.628263       -71.5187
  19   2.0000      -2.610976       -71.0483
  20   2.0000      -2.610792       -71.0433
  21   2.0000      -1.409793       -38.3624
  22   2.0000      -1.331073       -36.2203
  23   2.0000      -1.306790       -35.5596
  24   2.0000      -1.106379       -30.1061
  25   2.0000      -1.052331       -28.6354
  26   2.0000      -1.006925       -27.3998
  27   2.0000      -1.004134       -27.3239
  28   2.0000      -0.961635       -26.1674
  29   2.0000      -0.941300       -25.6141
  30   2.0000      -0.917397       -24.9637
  31   2.0000      -0.861585       -23.4449
  32   2.0000      -0.829331       -22.5672
  33   2.0000      -0.771318       -20.9886
  34   2.0000      -0.756426       -20.5834
  35   2.0000      -0.744618       -20.2621
  36   2.0000      -0.718115       -19.5409
  37   2.0000      -0.709918       -19.3179
  38   2.0000      -0.699504       -19.0345
  39   2.0000      -0.688409       -18.7326
  40   2.0000      -0.681647       -18.5486
  41   2.0000      -0.669679       -18.2229
  42   2.0000      -0.665441       -18.1076
  43   2.0000      -0.663334       -18.0502
  44   2.0000      -0.660555       -17.9746
  45   2.0000      -0.648377       -17.6432
  46   2.0000      -0.647620       -17.6226
  47   2.0000      -0.642453       -17.4820
  48   2.0000      -0.637262       -17.3408
  49   2.0000      -0.621445       -16.9104
  50   2.0000      -0.617444       -16.8015
  51   2.0000      -0.611307       -16.6345
  52   2.0000      -0.598629       -16.2895
  53   2.0000      -0.586519       -15.9600
  54   2.0000      -0.577726       -15.7207
  55   2.0000      -0.570837       -15.5333
  56   2.0000      -0.568348       -15.4655
  57   2.0000      -0.562963       -15.3190
  58   2.0000      -0.559565       -15.2265
  59   2.0000      -0.524473       -14.2716
  60   2.0000      -0.515680       -14.0324
  61   2.0000      -0.492616       -13.4048
  62   2.0000      -0.488918       -13.3041
  63   0.0000      -0.126074        -3.4307
  64   0.0000      -0.095128        -2.5886
  65   0.0000      -0.085653        -2.3307
  66   0.0000      -0.075224        -2.0470
  67   0.0000      -0.067731        -1.8431

MULLIKEN ATOMIC CHARGES
-----------------------
   0 C :    0.558853
   1 C :   -0.623613
   2 C :   -1.044405
   3 H :    0.276492
   4 H :    0.291777
   5 H :    0.285475
   6 C :    2.148926
   7 O :   -0.408886
   8 C :    0.779974
   9 O :   -0.547162
  10 C :    0.465714
  11 O :   -0.549155
  12 C :   -1.206026
  13 H :    0.277733
  14 H :    0.361678
  15 H :    0.291500
  16 C :   -1.049998
  17 H :    0.307643
  18 H :    0.292277
  19 H :    0.273036
  20 C :   -1.495021
  21 H :    0.358926
  22 H :    0.320175
  23 H :    0.361328
  24 Au:   -0.104401
  25 P :   -0.131883
  26 H :    0.169837
  27 H :    0.169331
  28 H :    0.169877
Sum of atomic charges:    1.0000000

LOEWDIN ATOMIC CHARGES
----------------------
   0 C :   -0.237726
   1 C :    0.047039
   2 C :    0.132457
   3 H :   -0.003683
   4 H :   -0.002684
   5 H :   -0.004946
   6 C :   -0.349609
   7 O :    0.073070
   8 C :   -0.417085
   9 O :    0.144437
  10 C :   -0.329834
  11 O :    0.063979
  12 C :    0.238509
  13 H :    0.015265
  14 H :    0.012417
  15 H :    0.016701
  16 C :    0.272831
  17 H :    0.015151
  18 H :    0.016567
  19 H :    0.022272
  20 C :    0.244003
  21 H :    0.023856
  22 H :    0.009940
  23 H :    0.018939
  24 Au:    0.595686
  25 P :    0.854714
  26 H :   -0.156484
  27 H :   -0.160830
  28 H :   -0.154952

  Mayer bond orders larger than 0.100000
B(  0-C ,  1-C ) :   1.2440 B(  0-C ,  2-C ) :   0.5805 B(  0-C ,  6-C ) :  -0.1407
B(  0-C , 24-Au) :   0.5765 B(  1-C ,  6-C ) :   0.3883 B(  1-C , 10-C ) :   0.2762
B(  1-C , 24-Au) :   0.3711 B(  2-C ,  3-H ) :   0.9804 B(  2-C ,  4-H ) :   0.9566
B(  2-C ,  5-H ) :   0.9525 B(  6-C ,  7-O ) :   0.4845 B(  6-C , 10-C ) :   0.2543
B(  6-C , 20-C ) :   0.6082 B(  7-O ,  8-C ) :   1.0513 B(  7-O , 20-C ) :   0.1298
B(  8-C ,  9-O ) :   1.6535 B(  8-C , 16-C ) :   0.6891 B( 10-C , 11-O ) :   1.5527
B( 10-C , 12-C ) :   0.6335 B( 10-C , 20-C ) :  -0.1165 B( 12-C , 13-H ) :   0.9755
B( 12-C , 14-H ) :   0.9483 B( 12-C , 15-H ) :   0.9654 B( 16-C , 17-H ) :   0.9822
B( 16-C , 18-H ) :   0.9452 B( 16-C , 19-H ) :   0.9433 B( 20-C , 21-H ) :   0.8867
B( 20-C , 22-H ) :   0.9903 B( 20-C , 23-H ) :   0.8940 B( 24-Au, 25-P ) :   0.9623
B( 25-P , 26-H ) :   0.9285 B( 25-P , 27-H ) :   0.9334 B( 25-P , 28-H ) :   0.9294

FINAL SINGLE POINT ENERGY     -1054.425306305718

DIPOLE MOMENT
-------------
                                X             Y             Z
Electronic contribution:   -212.10721     -43.03484      -5.72567
Nuclear contribution   :    212.91002      43.46471       5.39034
                        -----------------------------------------
Total Dipole Moment    :      0.80281       0.42987      -0.33533
                        -----------------------------------------
Magnitude (a.u.)       :      0.97043
Magnitude (Debye)      :      2.46665

Rotational constants in cm-1:     0.027720     0.008314     0.006995
Rotational constants in MHz :   831.016337   249.254276   209.717578

                             ****ORCA TERMINATED NORMALLY****
TOTAL RUN TIME: 0 days 0 hours 10 minutes 26 seconds 142 msec
