                         Program Version 4.2.0 -  RELEASE  -
|  1> #
|  2> # TMB20_T3 wB97M-V/Def2-TZVPPD
|  3> #
|  4> ! wb97m-v def2-tzvppd def2/jk grid4 nofinalgrid
|  5>
|  6> *xyz 0 1
|  7> Re      -0.699337    0.269974   -0.016922
|  8> C       -1.517494    1.171658    1.511937
|  9> C       -2.128741    0.734814   -1.269556
| 10> C        0.006415    1.979914   -0.520985
| 11> Br      -2.293994   -1.692635    0.422377
| 12> O        0.401983    3.017146   -0.812479
| 13> O       -1.978437    1.683611    2.420736
| 14> O       -2.925520    0.985618   -2.040062
| 15> C        1.682445   -0.880018   -1.649716
| 16> C        0.364751   -1.082540   -1.469297
| 17> C        2.354559    0.058914   -0.699791
| 18> C        3.755152   -0.401179   -0.311110
| 19> O        4.391770   -1.216840   -0.916463
| 20> O        4.190730    0.250058    0.766853
| 21> C        1.438220    0.283372    0.494253
| 22> O        0.848413   -0.807036    1.012308
| 23> H        0.600901   -1.340620   -0.125835
| 24> C        5.512413   -0.088930    1.195157
| 25> H        5.700542    0.516294    2.077458
| 26> H        5.571154   -1.149548    1.436871
| 27> H        6.234349    0.138790    0.411497
| 28> H       -0.156995   -1.792005   -2.102193
| 29> H        2.493970    1.031893   -1.188973
| 30> H        1.754916    1.016172    1.230092
| 31> H        2.303398   -1.383326   -2.385460
| 32> *
| 33>
| 34> %maxcore 5000
| 35>
| 36> %pal
| 37> nprocs = 24
| 38> end
| 39>
| 40>
| 41>                          ****END OF INPUT****

CARTESIAN COORDINATES (ANGSTROEM)
---------------------------------
  Re    -0.699337    0.269974   -0.016922
  C     -1.517494    1.171658    1.511937
  C     -2.128741    0.734814   -1.269556
  C      0.006415    1.979914   -0.520985
  Br    -2.293994   -1.692635    0.422377
  O      0.401983    3.017146   -0.812479
  O     -1.978437    1.683611    2.420736
  O     -2.925520    0.985618   -2.040062
  C      1.682445   -0.880018   -1.649716
  C      0.364751   -1.082540   -1.469297
  C      2.354559    0.058914   -0.699791
  C      3.755152   -0.401179   -0.311110
  O      4.391770   -1.216840   -0.916463
  O      4.190730    0.250058    0.766853
  C      1.438220    0.283372    0.494253
  O      0.848413   -0.807036    1.012308
  H      0.600901   -1.340620   -0.125835
  C      5.512413   -0.088930    1.195157
  H      5.700542    0.516294    2.077458
  H      5.571154   -1.149548    1.436871
  H      6.234349    0.138790    0.411497
  H     -0.156995   -1.792005   -2.102193
  H      2.493970    1.031893   -1.188973
  H      1.754916    1.016172    1.230092
  H      2.303398   -1.383326   -2.385460

 Total Charge           Charge          ....    0
 Multiplicity           Mult            ....    1
 Number of Electrons    NEL             ....  160
 Basis Dimension        Dim             ....  825

ORBITAL ENERGIES
----------------

  NO   OCC          E(Eh)            E(eV)
   0   2.0000    -483.462317    -13155.6785
   1   2.0000     -62.767481     -1707.9900
   2   2.0000     -56.453985     -1536.1910
   3   2.0000     -56.452336     -1536.1461
   4   2.0000     -56.452100     -1536.1397
   5   2.0000     -19.444555      -529.1133
   6   2.0000     -19.430288      -528.7250
   7   2.0000     -19.428858      -528.6861
   8   2.0000     -19.414570      -528.2973
   9   2.0000     -19.407111      -528.0943
  10   2.0000     -19.354166      -526.6536
  11   2.0000     -10.511641      -286.0363
  12   2.0000     -10.503109      -285.8041
  13   2.0000     -10.500328      -285.7285
  14   2.0000     -10.486101      -285.3413
  15   2.0000     -10.473940      -285.0104
  16   2.0000     -10.421885      -283.5939
  17   2.0000     -10.412727      -283.3447
  18   2.0000     -10.402061      -283.0545
  19   2.0000     -10.360055      -281.9114
  20   2.0000      -8.849677      -240.8120
  21   2.0000      -6.632506      -180.4797
  22   2.0000      -6.626774      -180.3237
  23   2.0000      -6.625954      -180.3014
  24   2.0000      -3.375709       -91.8577
  25   2.0000      -2.713970       -73.8509
  26   2.0000      -2.712584       -73.8132
  27   2.0000      -2.711883       -73.7941
  28   2.0000      -2.707376       -73.6714
  29   2.0000      -2.707366       -73.6712
  30   2.0000      -1.936021       -52.6818
  31   2.0000      -1.929026       -52.4915
  32   2.0000      -1.918047       -52.1927
  33   2.0000      -1.302008       -35.4294
  34   2.0000      -1.288231       -35.0545
  35   2.0000      -1.285649       -34.9843
  36   2.0000      -1.278198       -34.7815
  37   2.0000      -1.228670       -33.4338
  38   2.0000      -1.187162       -32.3043
  39   2.0000      -0.991253       -26.9734
  40   2.0000      -0.910284       -24.7701
  41   2.0000      -0.862821       -23.4786
  42   2.0000      -0.847107       -23.0510
  43   2.0000      -0.789652       -21.4875
  44   2.0000      -0.739438       -20.1211
  45   2.0000      -0.725177       -19.7331
  46   2.0000      -0.715328       -19.4651
  47   2.0000      -0.710262       -19.3272
  48   2.0000      -0.703741       -19.1498
  49   2.0000      -0.677116       -18.4253
  50   2.0000      -0.661562       -18.0020
  51   2.0000      -0.638518       -17.3750
  52   2.0000      -0.629088       -17.1184
  53   2.0000      -0.621763       -16.9190
  54   2.0000      -0.617001       -16.7895
  55   2.0000      -0.614709       -16.7271
  56   2.0000      -0.605684       -16.4815
  57   2.0000      -0.604331       -16.4447
  58   2.0000      -0.596659       -16.2359
  59   2.0000      -0.588121       -16.0036
  60   2.0000      -0.587196       -15.9784
  61   2.0000      -0.584878       -15.9153
  62   2.0000      -0.577207       -15.7066
  63   2.0000      -0.574608       -15.6359
  64   2.0000      -0.564231       -15.3535
  65   2.0000      -0.549107       -14.9420
  66   2.0000      -0.532376       -14.4867
  67   2.0000      -0.514742       -14.0068
  68   2.0000      -0.497905       -13.5487
  69   2.0000      -0.493163       -13.4196
  70   2.0000      -0.444425       -12.0934
  71   2.0000      -0.440397       -11.9838
  72   2.0000      -0.420174       -11.4335
  73   2.0000      -0.405838       -11.0434
  74   2.0000      -0.403967       -10.9925
  75   2.0000      -0.395274       -10.7560
  76   2.0000      -0.377569       -10.2742
  77   2.0000      -0.360742        -9.8163
  78   2.0000      -0.346363        -9.4250
  79   2.0000      -0.329806        -8.9745
  80   0.0000      -0.021989        -0.5984
  81   0.0000      -0.000992        -0.0270
  82   0.0000       0.012634         0.3438
  83   0.0000       0.026386         0.7180
  84   0.0000       0.028925         0.7871

MULLIKEN ATOMIC CHARGES
-----------------------
   0 Re:    0.188194
   1 C :    0.687540
   2 C :    0.646971
   3 C :    0.068836
   4 Br:   -0.456671
   5 O :   -0.427923
   6 O :   -0.373776
   7 O :   -0.346324
   8 C :   -0.677442
   9 C :   -0.157014
  10 C :    1.053516
  11 C :    0.139140
  12 O :   -0.603510
  13 O :   -0.294535
  14 C :   -0.649308
  15 O :   -0.587759
  16 H :    0.287273
  17 C :   -0.631576
  18 H :    0.216148
  19 H :    0.305419
  20 H :    0.300097
  21 H :    0.212684
  22 H :    0.301763
  23 H :    0.615064
  24 H :    0.183193
Sum of atomic charges:   -0.0000000

LOEWDIN ATOMIC CHARGES
----------------------
   0 Re:    0.577668
   1 C :   -0.249195
   2 C :   -0.285176
   3 C :   -0.261579
   4 Br:    0.157353
   5 O :    0.152845
   6 O :    0.146911
   7 O :    0.167693
   8 C :    0.051895
   9 C :    0.004808
  10 C :   -0.098593
  11 C :   -0.443668
  12 O :    0.143172
  13 O :    0.019631
  14 C :   -0.193853
  15 O :   -0.030133
  16 H :   -0.162110
  17 C :    0.175410
  18 H :    0.011958
  19 H :    0.016262
  20 H :    0.014828
  21 H :   -0.039075
  22 H :    0.060260
  23 H :    0.038552
  24 H :    0.024136

  Mayer bond orders larger than 0.100000
B(  0-Re,  1-C ) :   1.1932 B(  0-Re,  2-C ) :   1.0775 B(  0-Re,  3-C ) :   1.2495
B(  0-Re,  4-Br) :   0.6685 B(  0-Re,  8-C ) :   0.1647 B(  0-Re,  9-C ) :   0.3902
B(  0-Re, 14-C ) :   0.4582 B(  0-Re, 15-O ) :   0.5100 B(  1-C ,  2-C ) :  -0.1298
B(  1-C ,  3-C ) :  -0.1010 B(  1-C ,  6-O ) :   2.0461 B(  2-C ,  7-O ) :   2.0650
B(  3-C ,  5-O ) :   1.8962 B(  3-C ,  8-C ) :  -0.1002 B(  3-C , 14-C ) :   0.2729
B(  8-C ,  9-C ) :   1.9249 B(  8-C , 10-C ) :   0.5968 B(  8-C , 11-C ) :   0.1070
B(  8-C , 16-H ) :   0.1198 B(  8-C , 24-H ) :   1.1051 B(  9-C , 10-C ) :  -0.1494
B(  9-C , 16-H ) :   0.4252 B(  9-C , 21-H ) :   0.9820 B( 10-C , 11-C ) :   0.6221
B( 10-C , 14-C ) :   0.6703 B( 10-C , 22-H ) :   0.9056 B( 11-C , 12-O ) :   1.6036
B( 11-C , 13-O ) :   0.8965 B( 11-C , 14-C ) :   0.1615 B( 13-O , 17-C ) :   0.7405
B( 14-C , 15-O ) :   0.8134 B( 14-C , 23-H ) :   0.6027 B( 15-O , 16-H ) :   0.3301
B( 17-C , 18-H ) :   0.9989 B( 17-C , 19-H ) :   0.9151 B( 17-C , 20-H ) :   0.9046

FINAL SINGLE POINT ENERGY     -3451.511847075636

DIPOLE MOMENT
-------------
                                X             Y             Z
Electronic contribution:   -122.89483      29.19013       0.55189
Nuclear contribution   :    124.94821     -28.06424      -0.72382
                        -----------------------------------------
Total Dipole Moment    :      2.05338       1.12588      -0.17192
                        -----------------------------------------
Magnitude (a.u.)       :      2.34809
Magnitude (Debye)      :      5.96838

Rotational constants in cm-1:     0.017375     0.006623     0.006112
Rotational constants in MHz :   520.879987   198.539547   183.234187

                             ****ORCA TERMINATED NORMALLY****
TOTAL RUN TIME: 0 days 0 hours 12 minutes 43 seconds 350 msec
