                         Program Version 4.2.0 -  RELEASE  -
|  1> #
|  2> # TMB31_C1 wB97M-V/Def2-TZVPPD
|  3> #
|  4> ! wb97m-v def2-tzvppd def2/jk grid4 nofinalgrid
|  5>
|  6> *xyz 1 1
|  7> Ir      -0.040708    0.096324    0.064455
|  8> C       -0.971708    0.418734    1.931461
|  9> C        1.819460    0.364204   -1.190947
| 10> C        1.490903   -0.994938   -1.162590
| 11> C        1.450197   -1.406167    0.225985
| 12> C        1.875844   -0.290195    1.023097
| 13> C        2.052625    0.814608    0.164170
| 14> H       -0.394638    1.150210    2.498372
| 15> H       -1.993156    0.794195    1.837094
| 16> H       -1.008781   -0.505981    2.508304
| 17> H        1.977900   -0.288415    2.097324
| 18> H        2.352296    1.808383    0.458691
| 19> H        1.885000    0.981073   -2.074563
| 20> H        1.275763   -1.618283   -2.016436
| 21> H        1.275639   -2.406893    0.589421
| 22> C       -1.335861    2.101294   -0.927849
| 23> H       -0.822201    1.778454    0.045587
| 24> H       -0.969200    3.125001   -0.997930
| 25> H       -1.110952    1.579089   -1.850904
| 26> H       -2.401764    2.084149   -0.716661
| 27> P       -1.870306   -1.156932   -0.405763
| 28> H       -1.625569   -2.441008   -0.924735
| 29> H       -2.747711   -1.466666    0.650785
| 30> H       -2.792266   -0.681495   -1.360892
| 31> *
| 32>
| 33> %maxcore 5000
| 34>
| 35> %pal
| 36> nprocs = 24
| 37> end
| 38>
| 39>
| 40>                          ****END OF INPUT****

CARTESIAN COORDINATES (ANGSTROEM)
---------------------------------
  Ir    -0.040708    0.096324    0.064455
  C     -0.971708    0.418734    1.931461
  C      1.819460    0.364204   -1.190947
  C      1.490903   -0.994938   -1.162590
  C      1.450197   -1.406167    0.225985
  C      1.875844   -0.290195    1.023097
  C      2.052625    0.814608    0.164170
  H     -0.394638    1.150210    2.498372
  H     -1.993156    0.794195    1.837094
  H     -1.008781   -0.505981    2.508304
  H      1.977900   -0.288415    2.097324
  H      2.352296    1.808383    0.458691
  H      1.885000    0.981073   -2.074563
  H      1.275763   -1.618283   -2.016436
  H      1.275639   -2.406893    0.589421
  C     -1.335861    2.101294   -0.927849
  H     -0.822201    1.778454    0.045587
  H     -0.969200    3.125001   -0.997930
  H     -1.110952    1.579089   -1.850904
  H     -2.401764    2.084149   -0.716661
  P     -1.870306   -1.156932   -0.405763
  H     -1.625569   -2.441008   -0.924735
  H     -2.747711   -1.466666    0.650785
  H     -2.792266   -0.681495   -1.360892

 Total Charge           Charge          ....    1
 Multiplicity           Mult            ....    1
 Number of Electrons    NEL             ....   88
 Basis Dimension        Dim             ....  621

ORBITAL ENERGIES
----------------

  NO   OCC          E(Eh)            E(eV)
   0   2.0000     -77.565026     -2110.6517
   1   2.0000     -10.541841      -286.8581
   2   2.0000     -10.541072      -286.8372
   3   2.0000     -10.537758      -286.7470
   4   2.0000     -10.536464      -286.7118
   5   2.0000     -10.533804      -286.6394
   6   2.0000     -10.507873      -285.9338
   7   2.0000     -10.464914      -284.7648
   8   2.0000      -6.914609      -188.1561
   9   2.0000      -5.026906      -136.7891
  10   2.0000      -5.026673      -136.7827
  11   2.0000      -5.024405      -136.7210
  12   2.0000      -4.011165      -109.1494
  13   2.0000      -2.358309       -64.1729
  14   2.0000      -2.339643       -63.6649
  15   2.0000      -2.329522       -63.3895
  16   2.0000      -1.198500       -32.6128
  17   2.0000      -1.022852       -27.8332
  18   2.0000      -1.013757       -27.5857
  19   2.0000      -0.996604       -27.1190
  20   2.0000      -0.951994       -25.9051
  21   2.0000      -0.923652       -25.1338
  22   2.0000      -0.835426       -22.7331
  23   2.0000      -0.833487       -22.6803
  24   2.0000      -0.822108       -22.3707
  25   2.0000      -0.723561       -19.6891
  26   2.0000      -0.704645       -19.1744
  27   2.0000      -0.692948       -18.8561
  28   2.0000      -0.688491       -18.7348
  29   2.0000      -0.684189       -18.6177
  30   2.0000      -0.676431       -18.4066
  31   2.0000      -0.663829       -18.0637
  32   2.0000      -0.657392       -17.8885
  33   2.0000      -0.656254       -17.8576
  34   2.0000      -0.654267       -17.8035
  35   2.0000      -0.630207       -17.1488
  36   2.0000      -0.625992       -17.0341
  37   2.0000      -0.618450       -16.8289
  38   2.0000      -0.587057       -15.9746
  39   2.0000      -0.553456       -15.0603
  40   2.0000      -0.545244       -14.8368
  41   2.0000      -0.521901       -14.2016
  42   2.0000      -0.503618       -13.7041
  43   2.0000      -0.476665       -12.9707
  44   0.0000      -0.140849        -3.8327
  45   0.0000      -0.098015        -2.6671
  46   0.0000      -0.090125        -2.4524
  47   0.0000      -0.080086        -2.1792
  48   0.0000      -0.077241        -2.1018

MULLIKEN ATOMIC CHARGES
-----------------------
   0 Ir:    0.509347
   1 C :   -1.396126
   2 C :   -0.189983
   3 C :   -0.133964
   4 C :    0.044192
   5 C :   -0.513897
   6 C :   -0.143040
   7 H :    0.390481
   8 H :    0.429903
   9 H :    0.361866
  10 H :    0.248097
  11 H :    0.199207
  12 H :    0.233938
  13 H :    0.211916
  14 H :    0.270855
  15 C :   -1.036194
  16 H :    0.246853
  17 H :    0.284909
  18 H :    0.316470
  19 H :    0.307557
  20 P :   -0.085562
  21 H :    0.145112
  22 H :    0.152375
  23 H :    0.145689
Sum of atomic charges:    1.0000000

LOEWDIN ATOMIC CHARGES
----------------------
   0 Ir:    0.924454
   1 C :   -0.026337
   2 C :   -0.048359
   3 C :   -0.061200
   4 C :   -0.100696
   5 C :   -0.058599
   6 C :   -0.047857
   7 H :   -0.078982
   8 H :   -0.092151
   9 H :   -0.084344
  10 H :    0.031376
  11 H :    0.025010
  12 H :    0.025410
  13 H :    0.019206
  14 H :    0.021382
  15 C :    0.256152
  16 H :   -0.146150
  17 H :   -0.017574
  18 H :   -0.059197
  19 H :   -0.029087
  20 P :    0.918699
  21 H :   -0.128000
  22 H :   -0.116970
  23 H :   -0.126187

  Mayer bond orders larger than 0.100000
B(  0-Ir,  1-C ) :   0.5430 B(  0-Ir,  2-C ) :   0.4254 B(  0-Ir,  3-C ) :   0.3691
B(  0-Ir,  4-C ) :   0.5496 B(  0-Ir,  5-C ) :   0.5294 B(  0-Ir,  6-C ) :   0.3833
B(  0-Ir, 15-C ) :   0.1640 B(  0-Ir, 16-H ) :   0.1868 B(  0-Ir, 20-P ) :   0.9609
B(  1-C ,  5-C ) :   0.1404 B(  1-C ,  7-H ) :   0.8669 B(  1-C ,  8-H ) :   0.8166
B(  1-C ,  9-H ) :   0.9202 B(  2-C ,  3-C ) :   1.1183 B(  2-C ,  4-C ) :  -0.1849
B(  2-C ,  5-C ) :  -0.1117 B(  2-C ,  6-C ) :   0.8154 B(  2-C , 12-H ) :   1.0070
B(  3-C ,  4-C ) :   0.8529 B(  3-C ,  5-C ) :  -0.1381 B(  3-C ,  6-C ) :  -0.1770
B(  3-C , 13-H ) :   1.0345 B(  4-C ,  5-C ) :   0.8413 B(  4-C ,  6-C ) :  -0.2019
B(  4-C , 14-H ) :   0.9343 B(  5-C ,  6-C ) :   1.0828 B(  5-C , 10-H ) :   0.9882
B(  6-C , 11-H ) :   1.0223 B( 15-C , 16-H ) :   0.5534 B( 15-C , 17-H ) :   1.0118
B( 15-C , 18-H ) :   0.9183 B( 15-C , 19-H ) :   0.9802 B( 20-P , 21-H ) :   0.9410
B( 20-P , 22-H ) :   0.9378 B( 20-P , 23-H ) :   0.9360

FINAL SINGLE POINT ENERGY      -721.124094610954

DIPOLE MOMENT
-------------
                                X             Y             Z
Electronic contribution:     -2.91698      10.03152       7.27477
Nuclear contribution   :      2.66689     -10.24599      -8.00272
                        -----------------------------------------
Total Dipole Moment    :     -0.25009      -0.21448      -0.72795
                        -----------------------------------------
Magnitude (a.u.)       :      0.79904
Magnitude (Debye)      :      2.03099

Rotational constants in cm-1:     0.050543     0.032436     0.029954
Rotational constants in MHz :  1515.232111   972.406510   898.012536

                             ****ORCA TERMINATED NORMALLY****
TOTAL RUN TIME: 0 days 0 hours 5 minutes 52 seconds 441 msec
