                         Program Version 4.2.0 -  RELEASE  -
|  1> #
|  2> # TMB31_T1 wB97M-V/Def2-TZVPPD
|  3> #
|  4> ! wb97m-v def2-tzvppd def2/jk grid4 nofinalgrid
|  5>
|  6> *xyz 1 1
|  7> Ir       0.050361    0.056236   -0.150076
|  8> C        0.978842   -1.302743   -1.517387
|  9> C       -1.864665    1.028637    0.563211
| 10> C       -1.426558    0.128925    1.555248
| 11> C       -1.389999   -1.187568    0.972706
| 12> C       -1.852948   -1.076424   -0.368776
| 13> C       -2.115280    0.291316   -0.640524
| 14> H        0.395138   -1.326753   -2.435403
| 15> H        2.003015   -1.039631   -1.784042
| 16> H        0.978935   -2.299217   -1.075482
| 17> H       -1.949414   -1.889112   -1.072248
| 18> H       -2.488115    0.695321   -1.568578
| 19> H       -1.982151    2.094988    0.682898
| 20> H       -1.179131    0.379256    2.575311
| 21> H       -1.144965   -2.105263    1.484015
| 22> C        0.981659    2.033847   -0.552795
| 23> H        0.609290    0.819803   -1.428069
| 24> H        0.362656    2.677374   -1.174650
| 25> H        1.003724    2.445002    0.454509
| 26> H        1.994491    2.026607   -0.953376
| 27> P        1.998129   -0.331589    0.938590
| 28> H        2.205383    0.285042    2.190624
| 29> H        2.302734   -1.672090    1.247762
| 30> H        3.172367    0.056392    0.263634
| 31> *
| 32>
| 33> %maxcore 5000
| 34>
| 35> %pal
| 36> nprocs = 24
| 37> end
| 38>
| 39>
| 40>                          ****END OF INPUT****

CARTESIAN COORDINATES (ANGSTROEM)
---------------------------------
  Ir     0.050361    0.056236   -0.150076
  C      0.978842   -1.302743   -1.517387
  C     -1.864665    1.028637    0.563211
  C     -1.426558    0.128925    1.555248
  C     -1.389999   -1.187568    0.972706
  C     -1.852948   -1.076424   -0.368776
  C     -2.115280    0.291316   -0.640524
  H      0.395138   -1.326753   -2.435403
  H      2.003015   -1.039631   -1.784042
  H      0.978935   -2.299217   -1.075482
  H     -1.949414   -1.889112   -1.072248
  H     -2.488115    0.695321   -1.568578
  H     -1.982151    2.094988    0.682898
  H     -1.179131    0.379256    2.575311
  H     -1.144965   -2.105263    1.484015
  C      0.981659    2.033847   -0.552795
  H      0.609290    0.819803   -1.428069
  H      0.362656    2.677374   -1.174650
  H      1.003724    2.445002    0.454509
  H      1.994491    2.026607   -0.953376
  P      1.998129   -0.331589    0.938590
  H      2.205383    0.285042    2.190624
  H      2.302734   -1.672090    1.247762
  H      3.172367    0.056392    0.263634

 Total Charge           Charge          ....    1
 Multiplicity           Mult            ....    1
 Number of Electrons    NEL             ....   88
 Basis Dimension        Dim             ....  621

ORBITAL ENERGIES
----------------

  NO   OCC          E(Eh)            E(eV)
   0   2.0000     -77.573996     -2110.8958
   1   2.0000     -10.537414      -286.7376
   2   2.0000     -10.536163      -286.7036
   3   2.0000     -10.535368      -286.6819
   4   2.0000     -10.533898      -286.6419
   5   2.0000     -10.532187      -286.5954
   6   2.0000     -10.517022      -286.1827
   7   2.0000     -10.482937      -285.2552
   8   2.0000      -6.922949      -188.3830
   9   2.0000      -5.035154      -137.0135
  10   2.0000      -5.035077      -137.0114
  11   2.0000      -5.032893      -136.9520
  12   2.0000      -4.022396      -109.4550
  13   2.0000      -2.365659       -64.3728
  14   2.0000      -2.350769       -63.9677
  15   2.0000      -2.343237       -63.7627
  16   2.0000      -1.197069       -32.5739
  17   2.0000      -1.018166       -27.7057
  18   2.0000      -1.012912       -27.5627
  19   2.0000      -0.982153       -26.7257
  20   2.0000      -0.955832       -26.0095
  21   2.0000      -0.932812       -25.3831
  22   2.0000      -0.832749       -22.6603
  23   2.0000      -0.831486       -22.6259
  24   2.0000      -0.820055       -22.3148
  25   2.0000      -0.733624       -19.9629
  26   2.0000      -0.709355       -19.3025
  27   2.0000      -0.697943       -18.9920
  28   2.0000      -0.694313       -18.8932
  29   2.0000      -0.685311       -18.6483
  30   2.0000      -0.677550       -18.4371
  31   2.0000      -0.656224       -17.8568
  32   2.0000      -0.655348       -17.8329
  33   2.0000      -0.653677       -17.7875
  34   2.0000      -0.641409       -17.4536
  35   2.0000      -0.638134       -17.3645
  36   2.0000      -0.630230       -17.1494
  37   2.0000      -0.620233       -16.8774
  38   2.0000      -0.593532       -16.1508
  39   2.0000      -0.558246       -15.1907
  40   2.0000      -0.543746       -14.7961
  41   2.0000      -0.527967       -14.3667
  42   2.0000      -0.509891       -13.8748
  43   2.0000      -0.485915       -13.2224
  44   0.0000      -0.118609        -3.2275
  45   0.0000      -0.097640        -2.6569
  46   0.0000      -0.094423        -2.5694
  47   0.0000      -0.084803        -2.3076
  48   0.0000      -0.076858        -2.0914

MULLIKEN ATOMIC CHARGES
-----------------------
   0 Ir:    0.525819
   1 C :   -1.386340
   2 C :   -0.285670
   3 C :   -0.107599
   4 C :   -0.011371
   5 C :   -0.422796
   6 C :   -0.126531
   7 H :    0.363048
   8 H :    0.467022
   9 H :    0.366468
  10 H :    0.261595
  11 H :    0.196226
  12 H :    0.247367
  13 H :    0.220946
  14 H :    0.242433
  15 C :   -1.260584
  16 H :    0.252765
  17 H :    0.354604
  18 H :    0.350257
  19 H :    0.422567
  20 P :   -0.146290
  21 H :    0.161312
  22 H :    0.162503
  23 H :    0.152249
Sum of atomic charges:    1.0000000

LOEWDIN ATOMIC CHARGES
----------------------
   0 Ir:    1.020116
   1 C :   -0.000123
   2 C :   -0.052900
   3 C :   -0.064695
   4 C :   -0.081338
   5 C :   -0.062783
   6 C :   -0.049745
   7 H :   -0.074278
   8 H :   -0.088819
   9 H :   -0.080270
  10 H :    0.029743
  11 H :    0.024957
  12 H :    0.027625
  13 H :    0.020573
  14 H :    0.020753
  15 C :    0.087210
  16 H :   -0.094439
  17 H :   -0.049250
  18 H :   -0.067150
  19 H :   -0.060793
  20 P :    0.924713
  21 H :   -0.116463
  22 H :   -0.108714
  23 H :   -0.103930

  Mayer bond orders larger than 0.100000
B(  0-Ir,  1-C ) :   0.5016 B(  0-Ir,  2-C ) :   0.4009 B(  0-Ir,  3-C ) :   0.4160
B(  0-Ir,  4-C ) :   0.4841 B(  0-Ir,  5-C ) :   0.4128 B(  0-Ir,  6-C ) :   0.4071
B(  0-Ir, 15-C ) :   0.3900 B(  0-Ir, 16-H ) :   0.6273 B(  0-Ir, 20-P ) :   0.9386
B(  1-C ,  5-C ) :   0.1269 B(  1-C ,  7-H ) :   0.9102 B(  1-C ,  8-H ) :   0.7694
B(  1-C ,  9-H ) :   0.9180 B(  2-C ,  3-C ) :   1.0718 B(  2-C ,  4-C ) :  -0.1945
B(  2-C ,  6-C ) :   0.8763 B(  2-C , 12-H ) :   1.0080 B(  2-C , 15-C ) :   0.1185
B(  3-C ,  4-C ) :   0.8461 B(  3-C ,  5-C ) :  -0.1746 B(  3-C ,  6-C ) :  -0.1698
B(  3-C , 13-H ) :   1.0266 B(  4-C ,  5-C ) :   0.9388 B(  4-C ,  6-C ) :  -0.1956
B(  4-C , 14-H ) :   0.9698 B(  5-C ,  6-C ) :   1.0141 B(  5-C , 10-H ) :   0.9966
B(  6-C , 11-H ) :   1.0190 B( 15-C , 16-H ) :   0.1772 B( 15-C , 17-H ) :   0.9405
B( 15-C , 18-H ) :   0.8909 B( 15-C , 19-H ) :   0.8349 B( 15-C , 20-P ) :   0.1097
B( 20-P , 21-H ) :   0.9407 B( 20-P , 22-H ) :   0.9383 B( 20-P , 23-H ) :   0.9557

FINAL SINGLE POINT ENERGY      -721.108332098608

DIPOLE MOMENT
-------------
                                X             Y             Z
Electronic contribution:      4.79863       6.85063     -17.55702
Nuclear contribution   :     -4.43915      -6.73459      18.18954
                        -----------------------------------------
Total Dipole Moment    :      0.35948       0.11604       0.63252
                        -----------------------------------------
Magnitude (a.u.)       :      0.73673
Magnitude (Debye)      :      1.87262

Rotational constants in cm-1:     0.054508     0.031967     0.031168
Rotational constants in MHz :  1634.105298   958.356108   934.407674

                             ****ORCA TERMINATED NORMALLY****
TOTAL RUN TIME: 0 days 0 hours 6 minutes 18 seconds 571 msec
