                         Program Version 4.2.0 -  RELEASE  -
|  1> #
|  2> # TMD08_V wB97M-V/Def2-TZVPPD
|  3> #
|  4> ! wb97m-v def2-tzvppd def2/jk grid4 nofinalgrid
|  5>
|  6> *xyz 0 4
|  7> V        0.000000    0.000000    0.000000
|  8> *
|  9>
| 10> %maxcore 5000
| 11>
| 12> %pal
| 13> nprocs = 24
| 14> end
| 15>
| 16>
| 17>                          ****END OF INPUT****

CARTESIAN COORDINATES (ANGSTROEM)
---------------------------------
  V      0.000000    0.000000    0.000000

 Total Charge           Charge          ....    0
 Multiplicity           Mult            ....    4
 Number of Electrons    NEL             ....   23
 Basis Dimension        Dim             ....   67

ORBITAL ENERGIES
----------------
                 SPIN UP ORBITALS
  NO   OCC          E(Eh)            E(eV)
   0   1.0000    -197.348089     -5370.1145
   1   1.0000     -22.504450      -612.3772
   2   1.0000     -18.926156      -515.0069
   3   1.0000     -18.925927      -515.0006
   4   1.0000     -18.923888      -514.9452
   5   1.0000      -2.839335       -77.2622
   6   1.0000      -1.855518       -50.4912
   7   1.0000      -1.853823       -50.4451
   8   1.0000      -1.853259       -50.4298
   9   1.0000      -0.388789       -10.5795
  10   1.0000      -0.388569       -10.5735
  11   1.0000      -0.387899       -10.5553
  12   1.0000      -0.265686        -7.2297
  13   0.0000      -0.017313        -0.4711
  14   0.0000      -0.010921        -0.2972
  15   0.0000       0.004595         0.1250
  16   0.0000       0.004778         0.1300
  17   0.0000       0.005202         0.1416

                 SPIN DOWN ORBITALS
  NO   OCC          E(Eh)            E(eV)
   0   1.0000    -197.347403     -5370.0959
   1   1.0000     -22.459793      -611.1620
   2   1.0000     -18.889989      -514.0227
   3   1.0000     -18.889870      -514.0195
   4   1.0000     -18.887782      -513.9627
   5   1.0000      -2.728652       -74.2504
   6   1.0000      -1.730741       -47.0958
   7   1.0000      -1.729907       -47.0732
   8   1.0000      -1.727806       -47.0160
   9   1.0000      -0.244706        -6.6588
  10   0.0000       0.014621         0.3978
  11   0.0000       0.014669         0.3992
  12   0.0000       0.015266         0.4154
  13   0.0000       0.035019         0.9529
  14   0.0000       0.035931         0.9777

MULLIKEN ATOMIC CHARGES AND SPIN POPULATIONS
--------------------------------------------
   0 V :   -0.000000    3.000000
Sum of atomic charges         :   -0.0000000

LOEWDIN ATOMIC CHARGES AND SPIN POPULATIONS
-------------------------------------------
   0 V :   -0.000000    3.000000

FINAL SINGLE POINT ENERGY      -943.834960013909

DIPOLE MOMENT
-------------
                                X             Y             Z
Electronic contribution:     -0.00000       0.00000      -0.00000
Nuclear contribution   :      0.00000       0.00000       0.00000
                        -----------------------------------------
Total Dipole Moment    :     -0.00000       0.00000      -0.00000
                        -----------------------------------------
Magnitude (a.u.)       :      0.00000
Magnitude (Debye)      :      0.00000

Rotational constants in cm-1:     0.000000     0.000000     0.000000
Rotational constants in MHz :     0.000000     0.000000     0.000000

                             ****ORCA TERMINATED NORMALLY****
TOTAL RUN TIME: 0 days 0 hours 0 minutes 20 seconds 643 msec
