                         Program Version 4.2.0 -  RELEASE  -
|  1> #
|  2> # TMD02_O wB97M-V/Def2-TZVPPD
|  3> #
|  4> ! wb97m-v def2-tzvppd def2/jk grid4 nofinalgrid
|  5>
|  6> *xyz 0 3
|  7> O        0.000000    0.000000    0.000000
|  8> *
|  9>
| 10> %maxcore 5000
| 11>
| 12> %pal
| 13> nprocs = 24
| 14> end
| 15>
| 16>
| 17>                          ****END OF INPUT****

CARTESIAN COORDINATES (ANGSTROEM)
---------------------------------
  O      0.000000    0.000000    0.000000

 Total Charge           Charge          ....    0
 Multiplicity           Mult            ....    3
 Number of Electrons    NEL             ....    8
 Basis Dimension        Dim             ....   40

ORBITAL ENERGIES
----------------
                 SPIN UP ORBITALS
  NO   OCC          E(Eh)            E(eV)
   0   1.0000     -19.485031      -530.2146
   1   1.0000      -1.146461       -31.1968
   2   1.0000      -0.570350       -15.5200
   3   1.0000      -0.570350       -15.5200
   4   1.0000      -0.508492       -13.8368
   5   0.0000       0.095106         2.5880
   6   0.0000       0.099255         2.7009
   7   0.0000       0.099255         2.7009
   8   0.0000       0.103532         2.8173
   9   0.0000       0.412574        11.2267

                 SPIN DOWN ORBITALS
  NO   OCC          E(Eh)            E(eV)
   0   1.0000     -19.434608      -528.8426
   1   1.0000      -0.989928       -26.9373
   2   1.0000      -0.445481       -12.1222
   3   0.0000      -0.089536        -2.4364
   4   0.0000      -0.089532        -2.4363
   5   0.0000       0.061066         1.6617
   6   0.0000       0.081029         2.2049
   7   0.0000       0.081089         2.2065

MULLIKEN ATOMIC CHARGES AND SPIN POPULATIONS
--------------------------------------------
   0 O :   -0.000000    2.000000
Sum of atomic charges         :   -0.0000000

LOEWDIN ATOMIC CHARGES AND SPIN POPULATIONS
-------------------------------------------
   0 O :   -0.000000    2.000000

FINAL SINGLE POINT ENERGY       -75.077725597639

DIPOLE MOMENT
-------------
                                X             Y             Z
Electronic contribution:     -0.00000       0.00000      -0.00000
Nuclear contribution   :      0.00000       0.00000       0.00000
                        -----------------------------------------
Total Dipole Moment    :     -0.00000       0.00000      -0.00000
                        -----------------------------------------
Magnitude (a.u.)       :      0.00000
Magnitude (Debye)      :      0.00000

Rotational constants in cm-1:     0.000000     0.000000     0.000000
Rotational constants in MHz :     0.000000     0.000000     0.000000

                             ****ORCA TERMINATED NORMALLY****
TOTAL RUN TIME: 0 days 0 hours 0 minutes 2 seconds 880 msec
