                         Program Version 4.2.0 -  RELEASE  -
|  1> #
|  2> # TMD03_F wB97M-V/Def2-TZVPPD
|  3> #
|  4> ! wb97m-v def2-tzvppd def2/jk grid4 nofinalgrid
|  5>
|  6> *xyz 0 2
|  7> F        0.000000    0.000000    0.000000
|  8> *
|  9>
| 10> %maxcore 5000
| 11>
| 12> %pal
| 13> nprocs = 24
| 14> end
| 15>
| 16>
| 17>                          ****END OF INPUT****

CARTESIAN COORDINATES (ANGSTROEM)
---------------------------------
  F      0.000000    0.000000    0.000000

 Total Charge           Charge          ....    0
 Multiplicity           Mult            ....    2
 Number of Electrons    NEL             ....    9
 Basis Dimension        Dim             ....   40

ORBITAL ENERGIES
----------------
                 SPIN UP ORBITALS
  NO   OCC          E(Eh)            E(eV)
   0   1.0000     -25.011364      -680.5938
   1   1.0000      -1.368270       -37.2325
   2   1.0000      -0.672930       -18.3113
   3   1.0000      -0.597096       -16.2478
   4   1.0000      -0.597096       -16.2478
   5   0.0000       0.116456         3.1689
   6   0.0000       0.121525         3.3069
   7   0.0000       0.121525         3.3069
   8   0.0000       0.129259         3.5173
   9   0.0000       0.528402        14.3786

                 SPIN DOWN ORBITALS
  NO   OCC          E(Eh)            E(eV)
   0   1.0000     -24.980511      -679.7543
   1   1.0000      -1.276623       -34.7387
   2   1.0000      -0.560797       -15.2601
   3   1.0000      -0.560795       -15.2600
   4   0.0000      -0.163628        -4.4526
   5   0.0000       0.106038         2.8854
   6   0.0000       0.120049         3.2667
   7   0.0000       0.124988         3.4011
   8   0.0000       0.124992         3.4012

MULLIKEN ATOMIC CHARGES AND SPIN POPULATIONS
--------------------------------------------
   0 F :   -0.000000    1.000000
Sum of atomic charges         :   -0.0000000

LOEWDIN ATOMIC CHARGES AND SPIN POPULATIONS
-------------------------------------------
   0 F :   -0.000000    1.000000

FINAL SINGLE POINT ENERGY       -99.746522222901

DIPOLE MOMENT
-------------
                                X             Y             Z
Electronic contribution:     -0.00000       0.00000      -0.00000
Nuclear contribution   :      0.00000       0.00000       0.00000
                        -----------------------------------------
Total Dipole Moment    :     -0.00000       0.00000      -0.00000
                        -----------------------------------------
Magnitude (a.u.)       :      0.00000
Magnitude (Debye)      :      0.00000

Rotational constants in cm-1:     0.000000     0.000000     0.000000
Rotational constants in MHz :     0.000000     0.000000     0.000000

                             ****ORCA TERMINATED NORMALLY****
TOTAL RUN TIME: 0 days 0 hours 0 minutes 2 seconds 873 msec
