                         Program Version 4.2.0 -  RELEASE  -
|  1> #
|  2> # TMD06_Br wB97M-V/Def2-TZVPPD
|  3> #
|  4> ! wb97m-v def2-tzvppd def2/jk grid4 nofinalgrid
|  5>
|  6> *xyz 0 2
|  7> Br       0.000000    0.000000    0.000000
|  8> *
|  9>
| 10> %maxcore 5000
| 11>
| 12> %pal
| 13> nprocs = 24
| 14> end
| 15>
| 16>
| 17>                          ****END OF INPUT****

CARTESIAN COORDINATES (ANGSTROEM)
---------------------------------
  Br     0.000000    0.000000    0.000000

 Total Charge           Charge          ....    0
 Multiplicity           Mult            ....    2
 Number of Electrons    NEL             ....   35
 Basis Dimension        Dim             ....   57

ORBITAL ENERGIES
----------------
                 SPIN UP ORBITALS
  NO   OCC          E(Eh)            E(eV)
   0   1.0000    -483.547188    -13157.9879
   1   1.0000     -62.851459     -1710.2752
   2   1.0000     -56.542685     -1538.6047
   3   1.0000     -56.535108     -1538.3985
   4   1.0000     -56.535108     -1538.3985
   5   1.0000      -8.934183      -243.1115
   6   1.0000      -6.727482      -183.0641
   7   1.0000      -6.706144      -182.4834
   8   1.0000      -6.706144      -182.4834
   9   1.0000      -2.806079       -76.3573
  10   1.0000      -2.800719       -76.2114
  11   1.0000      -2.800719       -76.2114
  12   1.0000      -2.784798       -75.7782
  13   1.0000      -2.784798       -75.7782
  14   1.0000      -0.917578       -24.9686
  15   1.0000      -0.468884       -12.7590
  16   1.0000      -0.425517       -11.5789
  17   1.0000      -0.425517       -11.5789
  18   0.0000       0.050864         1.3841
  19   0.0000       0.054960         1.4955
  20   0.0000       0.054960         1.4955
  21   0.0000       0.083660         2.2765
  22   0.0000       0.167429         4.5560

                 SPIN DOWN ORBITALS
  NO   OCC          E(Eh)            E(eV)
   0   1.0000    -483.544358    -13157.9109
   1   1.0000     -62.850541     -1710.2502
   2   1.0000     -56.536469     -1538.4355
   3   1.0000     -56.534079     -1538.3705
   4   1.0000     -56.534079     -1538.3705
   5   1.0000      -8.930622      -243.0146
   6   1.0000      -6.717378      -182.7891
   7   1.0000      -6.704570      -182.4406
   8   1.0000      -6.704570      -182.4406
   9   1.0000      -2.798011       -76.1378
  10   1.0000      -2.794571       -76.0441
  11   1.0000      -2.794571       -76.0441
  12   1.0000      -2.783951       -75.7552
  13   1.0000      -2.783951       -75.7552
  14   1.0000      -0.868130       -23.6230
  15   1.0000      -0.410030       -11.1575
  16   1.0000      -0.410030       -11.1575
  17   0.0000      -0.146312        -3.9814
  18   0.0000       0.033694         0.9168
  19   0.0000       0.054647         1.4870
  20   0.0000       0.054648         1.4871
  21   0.0000       0.056856         1.5471

MULLIKEN ATOMIC CHARGES AND SPIN POPULATIONS
--------------------------------------------
   0 Br:   -0.000000    1.000000
Sum of atomic charges         :   -0.0000000

LOEWDIN ATOMIC CHARGES AND SPIN POPULATIONS
-------------------------------------------
   0 Br:   -0.000000    1.000000

FINAL SINGLE POINT ENERGY     -2573.968059257383

DIPOLE MOMENT
-------------
                                X             Y             Z
Electronic contribution:      0.00000      -0.00000      -0.00000
Nuclear contribution   :      0.00000       0.00000       0.00000
                        -----------------------------------------
Total Dipole Moment    :      0.00000      -0.00000      -0.00000
                        -----------------------------------------
Magnitude (a.u.)       :      0.00000
Magnitude (Debye)      :      0.00000

Rotational constants in cm-1:     0.000000     0.000000     0.000000
Rotational constants in MHz :     0.000000     0.000000     0.000000

                             ****ORCA TERMINATED NORMALLY****
TOTAL RUN TIME: 0 days 0 hours 0 minutes 3 seconds 155 msec
