                         Program Version 4.2.0 -  RELEASE  -
|  1> #
|  2> # TMD05_Cl wB97M-V/Def2-TZVPPD
|  3> #
|  4> ! wb97m-v def2-tzvppd def2/jk grid4 nofinalgrid
|  5>
|  6> *xyz 0 2
|  7> Cl       0.000000    0.000000    0.000000
|  8> *
|  9>
| 10> %maxcore 5000
| 11>
| 12> %pal
| 13> nprocs = 24
| 14> end
| 15>
| 16>
| 17>                          ****END OF INPUT****

CARTESIAN COORDINATES (ANGSTROEM)
---------------------------------
  Cl     0.000000    0.000000    0.000000

 Total Charge           Charge          ....    0
 Multiplicity           Mult            ....    2
 Number of Electrons    NEL             ....   17
 Basis Dimension        Dim             ....   51

ORBITAL ENERGIES
----------------
                 SPIN UP ORBITALS
  NO   OCC          E(Eh)            E(eV)
   0   1.0000    -101.929609     -2773.6457
   1   1.0000      -9.698284      -263.9037
   2   1.0000      -7.415063      -201.7741
   3   1.0000      -7.392448      -201.1587
   4   1.0000      -7.392448      -201.1587
   5   1.0000      -0.968441       -26.3526
   6   1.0000      -0.504854       -13.7378
   7   1.0000      -0.460718       -12.5368
   8   1.0000      -0.460718       -12.5368
   9   0.0000       0.065783         1.7900
  10   0.0000       0.070254         1.9117
  11   0.0000       0.070254         1.9117
  12   0.0000       0.099400         2.7048
  13   0.0000       0.220602         6.0029

                 SPIN DOWN ORBITALS
  NO   OCC          E(Eh)            E(eV)
   0   1.0000    -101.921768     -2773.4323
   1   1.0000      -9.692066      -263.7345
   2   1.0000      -7.390963      -201.1183
   3   1.0000      -7.387664      -201.0286
   4   1.0000      -7.387664      -201.0286
   5   1.0000      -0.917081       -24.9550
   6   1.0000      -0.442861       -12.0509
   7   1.0000      -0.442861       -12.0509
   8   0.0000      -0.158266        -4.3066
   9   0.0000       0.048280         1.3138
  10   0.0000       0.070657         1.9227
  11   0.0000       0.070661         1.9228
  12   0.0000       0.078704         2.1416

MULLIKEN ATOMIC CHARGES AND SPIN POPULATIONS
--------------------------------------------
   0 Cl:   -0.000000    1.000000
Sum of atomic charges         :   -0.0000000

LOEWDIN ATOMIC CHARGES AND SPIN POPULATIONS
-------------------------------------------
   0 Cl:   -0.000000    1.000000

FINAL SINGLE POINT ENERGY      -460.126052604905

DIPOLE MOMENT
-------------
                                X             Y             Z
Electronic contribution:      0.00000      -0.00000      -0.00000
Nuclear contribution   :      0.00000       0.00000       0.00000
                        -----------------------------------------
Total Dipole Moment    :      0.00000      -0.00000      -0.00000
                        -----------------------------------------
Magnitude (a.u.)       :      0.00000
Magnitude (Debye)      :      0.00000

Rotational constants in cm-1:     0.000000     0.000000     0.000000
Rotational constants in MHz :     0.000000     0.000000     0.000000

                             ****ORCA TERMINATED NORMALLY****
TOTAL RUN TIME: 0 days 0 hours 0 minutes 2 seconds 912 msec
