                         Program Version 4.2.0 -  RELEASE  -
|  1> #
|  2> # TMD04_S wB97M-V/Def2-TZVPPD
|  3> #
|  4> ! wb97m-v def2-tzvppd def2/jk grid4 nofinalgrid
|  5>
|  6> *xyz 0 3
|  7> S        0.000000    0.000000    0.000000
|  8> *
|  9>
| 10> %maxcore 5000
| 11>
| 12> %pal
| 13> nprocs = 24
| 14> end
| 15>
| 16>
| 17>                          ****END OF INPUT****

CARTESIAN COORDINATES (ANGSTROEM)
---------------------------------
  S      0.000000    0.000000    0.000000

 Total Charge           Charge          ....    0
 Multiplicity           Mult            ....    3
 Number of Electrons    NEL             ....   16
 Basis Dimension        Dim             ....   51

ORBITAL ENERGIES
----------------
                 SPIN UP ORBITALS
  NO   OCC          E(Eh)            E(eV)
   0   1.0000     -89.253092     -2428.7001
   1   1.0000      -8.176278      -222.4878
   2   1.0000      -6.093125      -165.8024
   3   1.0000      -6.093125      -165.8024
   4   1.0000      -6.074279      -165.2895
   5   1.0000      -0.841053       -22.8862
   6   1.0000      -0.428091       -11.6490
   7   1.0000      -0.428091       -11.6490
   8   1.0000      -0.391153       -10.6438
   9   0.0000       0.056393         1.5345
  10   0.0000       0.056393         1.5345
  11   0.0000       0.060264         1.6399
  12   0.0000       0.078299         2.1306
  13   0.0000       0.179140         4.8747

                 SPIN DOWN ORBITALS
  NO   OCC          E(Eh)            E(eV)
   0   1.0000     -89.240396     -2428.3546
   1   1.0000      -8.165695      -222.1999
   2   1.0000      -6.069157      -165.1502
   3   1.0000      -6.069157      -165.1502
   4   1.0000      -6.066033      -165.0651
   5   1.0000      -0.749336       -20.3905
   6   1.0000      -0.359089        -9.7713
   7   0.0000      -0.106149        -2.8885
   8   0.0000      -0.106147        -2.8884
   9   0.0000       0.020997         0.5713
  10   0.0000       0.028204         0.7675
  11   0.0000       0.028234         0.7683

MULLIKEN ATOMIC CHARGES AND SPIN POPULATIONS
--------------------------------------------
   0 S :    0.000000    2.000000
Sum of atomic charges         :    0.0000000

LOEWDIN ATOMIC CHARGES AND SPIN POPULATIONS
-------------------------------------------
   0 S :    0.000000    2.000000

FINAL SINGLE POINT ENERGY      -398.090512164046

DIPOLE MOMENT
-------------
                                X             Y             Z
Electronic contribution:     -0.00000       0.00000      -0.00000
Nuclear contribution   :      0.00000       0.00000       0.00000
                        -----------------------------------------
Total Dipole Moment    :     -0.00000       0.00000      -0.00000
                        -----------------------------------------
Magnitude (a.u.)       :      0.00000
Magnitude (Debye)      :      0.00000

Rotational constants in cm-1:     0.000000     0.000000     0.000000
Rotational constants in MHz :     0.000000     0.000000     0.000000

                             ****ORCA TERMINATED NORMALLY****
TOTAL RUN TIME: 0 days 0 hours 0 minutes 2 seconds 840 msec
