                         Program Version 4.2.0 -  RELEASE  -
|  1> #
|  2> # TMD07_Ti wB97M-V/Def2-TZVPPD
|  3> #
|  4> ! wb97m-v def2-tzvppd def2/jk grid4 nofinalgrid
|  5>
|  6> *xyz 0 3
|  7> Ti       0.000000    0.000000    0.000000
|  8> *
|  9>
| 10> %maxcore 5000
| 11>
| 12> %pal
| 13> nprocs = 24
| 14> end
| 15>
| 16>
| 17>                          ****END OF INPUT****

CARTESIAN COORDINATES (ANGSTROEM)
---------------------------------
  Ti     0.000000    0.000000    0.000000

 Total Charge           Charge          ....    0
 Multiplicity           Mult            ....    3
 Number of Electrons    NEL             ....   22
 Basis Dimension        Dim             ....   67

ORBITAL ENERGIES
----------------
                 SPIN UP ORBITALS
  NO   OCC          E(Eh)            E(eV)
   0   1.0000    -179.318392     -4879.5015
   1   1.0000     -20.123788      -547.5961
   2   1.0000     -16.761150      -456.0941
   3   1.0000     -16.761134      -456.0936
   4   1.0000     -16.761120      -456.0933
   5   1.0000      -2.551730       -69.4361
   6   1.0000      -1.646924       -44.8151
   7   1.0000      -1.646920       -44.8150
   8   1.0000      -1.646904       -44.8145
   9   1.0000      -0.347368        -9.4524
  10   1.0000      -0.347358        -9.4521
  11   1.0000      -0.251865        -6.8536
  12   0.0000       0.001899         0.0517
  13   0.0000       0.001904         0.0518
  14   0.0000       0.001925         0.0524
  15   0.0000       0.007660         0.2084
  16   0.0000       0.007697         0.2094

                 SPIN DOWN ORBITALS
  NO   OCC          E(Eh)            E(eV)
   0   1.0000    -179.317977     -4879.4902
   1   1.0000     -20.100199      -546.9542
   2   1.0000     -16.741822      -455.5681
   3   1.0000     -16.741792      -455.5673
   4   1.0000     -16.741748      -455.5661
   5   1.0000      -2.484268       -67.6004
   6   1.0000      -1.571078       -42.7512
   7   1.0000      -1.571012       -42.7494
   8   1.0000      -1.570862       -42.7453
   9   1.0000      -0.238969        -6.5027
  10   0.0000       0.008119         0.2209
  11   0.0000       0.008127         0.2211
  12   0.0000       0.008156         0.2219
  13   0.0000       0.033756         0.9185
  14   0.0000       0.033781         0.9192

MULLIKEN ATOMIC CHARGES AND SPIN POPULATIONS
--------------------------------------------
   0 Ti:    0.000000    2.000000
Sum of atomic charges         :    0.0000000

LOEWDIN ATOMIC CHARGES AND SPIN POPULATIONS
-------------------------------------------
   0 Ti:    0.000000    2.000000

FINAL SINGLE POINT ENERGY      -849.298453643523

DIPOLE MOMENT
-------------
                                X             Y             Z
Electronic contribution:     -0.00000      -0.00000      -0.00000
Nuclear contribution   :      0.00000       0.00000       0.00000
                        -----------------------------------------
Total Dipole Moment    :     -0.00000      -0.00000      -0.00000
                        -----------------------------------------
Magnitude (a.u.)       :      0.00000
Magnitude (Debye)      :      0.00000

Rotational constants in cm-1:     0.000000     0.000000     0.000000
Rotational constants in MHz :     0.000000     0.000000     0.000000

                             ****ORCA TERMINATED NORMALLY****
TOTAL RUN TIME: 0 days 0 hours 0 minutes 5 seconds 760 msec
