                         Program Version 4.2.0 -  RELEASE  -
|  1> #
|  2> # TMD11_Fe wB97M-V/Def2-TZVPPD
|  3> #
|  4> ! wb97m-v def2-tzvppd def2/jk grid4 nofinalgrid
|  5>
|  6> *xyz 0 5
|  7> Fe       0.000000    0.000000    0.000000
|  8> *
|  9>
| 10> %maxcore 5000
| 11>
| 12> %pal
| 13> nprocs = 24
| 14> end
| 15>
| 16>
| 17>                          ****END OF INPUT****

CARTESIAN COORDINATES (ANGSTROEM)
---------------------------------
  Fe     0.000000    0.000000    0.000000

 Total Charge           Charge          ....    0
 Multiplicity           Mult            ....    5
 Number of Electrons    NEL             ....   26
 Basis Dimension        Dim             ....   67

ORBITAL ENERGIES
----------------
                 SPIN UP ORBITALS
  NO   OCC          E(Eh)            E(eV)
   0   1.0000    -256.646449     -6983.7049
   1   1.0000     -30.376644      -826.5905
   2   1.0000     -26.159536      -711.8372
   3   1.0000     -26.128364      -710.9889
   4   1.0000     -26.127255      -710.9587
   5   1.0000      -3.758458      -102.2728
   6   1.0000      -2.551639       -69.4336
   7   1.0000      -2.492180       -67.8157
   8   1.0000      -2.489987       -67.7560
   9   1.0000      -0.536768       -14.6062
  10   1.0000      -0.528888       -14.3918
  11   1.0000      -0.527841       -14.3633
  12   1.0000      -0.500530       -13.6201
  13   1.0000      -0.473756       -12.8916
  14   1.0000      -0.295968        -8.0537
  15   0.0000       0.010446         0.2843
  16   0.0000       0.012955         0.3525
  17   0.0000       0.013150         0.3578
  18   0.0000       0.129951         3.5361
  19   0.0000       0.133745         3.6394

                 SPIN DOWN ORBITALS
  NO   OCC          E(Eh)            E(eV)
   0   1.0000    -256.644611     -6983.6549
   1   1.0000     -30.286187      -824.1291
   2   1.0000     -26.076226      -709.5702
   3   1.0000     -26.062443      -709.1951
   4   1.0000     -26.061979      -709.1825
   5   1.0000      -3.571872       -97.1956
   6   1.0000      -2.308112       -62.8069
   7   1.0000      -2.305159       -62.7266
   8   1.0000      -2.304733       -62.7150
   9   1.0000      -0.379251       -10.3199
  10   1.0000      -0.275824        -7.5056
  11   0.0000      -0.004144        -0.1128
  12   0.0000       0.008303         0.2259
  13   0.0000       0.009622         0.2618
  14   0.0000       0.021234         0.5778
  15   0.0000       0.022525         0.6129

MULLIKEN ATOMIC CHARGES AND SPIN POPULATIONS
--------------------------------------------
   0 Fe:   -0.000000    4.000000
Sum of atomic charges         :   -0.0000000

LOEWDIN ATOMIC CHARGES AND SPIN POPULATIONS
-------------------------------------------
   0 Fe:   -0.000000    4.000000

FINAL SINGLE POINT ENERGY     -1263.590773849149

DIPOLE MOMENT
-------------
                                X             Y             Z
Electronic contribution:      0.00000       0.00000      -0.00000
Nuclear contribution   :      0.00000       0.00000       0.00000
                        -----------------------------------------
Total Dipole Moment    :      0.00000       0.00000      -0.00000
                        -----------------------------------------
Magnitude (a.u.)       :      0.00000
Magnitude (Debye)      :      0.00000

Rotational constants in cm-1:     0.000000     0.000000     0.000000
Rotational constants in MHz :     0.000000     0.000000     0.000000

                             ****ORCA TERMINATED NORMALLY****
TOTAL RUN TIME: 0 days 0 hours 0 minutes 11 seconds 688 msec
