                         Program Version 4.2.0 -  RELEASE  -
|  1> #
|  2> # TMD16_VO wB97M-V/Def2-TZVPPD
|  3> #
|  4> ! wb97m-v def2-tzvppd def2/jk grid4 nofinalgrid
|  5>
|  6> *xyz 0 4
|  7> V        0.000000    0.000000    0.412903
|  8> O        0.000000    0.000000   -1.187097
|  9> *
| 10>
| 11> %maxcore 5000
| 12>
| 13> %pal
| 14> nprocs = 24
| 15> end
| 16>
| 17>
| 18>                          ****END OF INPUT****

CARTESIAN COORDINATES (ANGSTROEM)
---------------------------------
  V      0.000000    0.000000    0.412903
  O      0.000000    0.000000   -1.187097

 Total Charge           Charge          ....    0
 Multiplicity           Mult            ....    4
 Number of Electrons    NEL             ....   31
 Basis Dimension        Dim             ....  107

ORBITAL ENERGIES
----------------
                 SPIN UP ORBITALS
  NO   OCC          E(Eh)            E(eV)
   0   1.0000    -197.330084     -5369.6246
   1   1.0000     -22.480613      -611.7286
   2   1.0000     -19.315791      -525.6094
   3   1.0000     -18.908224      -514.5189
   4   1.0000     -18.899863      -514.2914
   5   1.0000     -18.899863      -514.2914
   6   1.0000      -2.803856       -76.2968
   7   1.0000      -1.835015       -49.9333
   8   1.0000      -1.817313       -49.4516
   9   1.0000      -1.817313       -49.4516
  10   1.0000      -0.990427       -26.9509
  11   1.0000      -0.445149       -12.1131
  12   1.0000      -0.423700       -11.5295
  13   1.0000      -0.423700       -11.5295
  14   1.0000      -0.339225        -9.2308
  15   1.0000      -0.339225        -9.2308
  16   1.0000      -0.271354        -7.3839
  17   0.0000      -0.008816        -0.2399
  18   0.0000      -0.008816        -0.2399
  19   0.0000      -0.003475        -0.0946
  20   0.0000       0.047108         1.2819
  21   0.0000       0.047108         1.2819

                 SPIN DOWN ORBITALS
  NO   OCC          E(Eh)            E(eV)
   0   1.0000    -197.328738     -5369.5879
   1   1.0000     -22.445130      -610.7630
   2   1.0000     -19.322923      -525.8035
   3   1.0000     -18.893791      -514.1262
   4   1.0000     -18.864390      -513.3262
   5   1.0000     -18.864390      -513.3262
   6   1.0000      -2.715355       -73.8886
   7   1.0000      -1.779482       -48.4222
   8   1.0000      -1.696327       -46.1594
   9   1.0000      -1.696327       -46.1594
  10   1.0000      -1.003329       -27.3020
  11   1.0000      -0.438458       -11.9310
  12   1.0000      -0.430776       -11.7220
  13   1.0000      -0.430776       -11.7220
  14   0.0000      -0.238857        -6.4996
  15   0.0000      -0.200142        -5.4461
  16   0.0000      -0.200142        -5.4461
  17   0.0000      -0.089200        -2.4273
  18   0.0000      -0.065695        -1.7876

MULLIKEN ATOMIC CHARGES AND SPIN POPULATIONS
--------------------------------------------
   0 V :    0.675825    3.112919
   1 O :   -0.675825   -0.112919
Sum of atomic charges         :   -0.0000000

LOEWDIN ATOMIC CHARGES AND SPIN POPULATIONS
-------------------------------------------
   0 V :    0.420903    3.025865
   1 O :   -0.420903   -0.025865

  Mayer bond orders larger than 0.100000
B(  0-V ,  1-O ) :   2.3960

FINAL SINGLE POINT ENERGY     -1019.126604877918

DIPOLE MOMENT
-------------
                                X             Y             Z
Electronic contribution:     -0.00000      -0.00000       3.39254
Nuclear contribution   :      0.00000       0.00000      -1.78611
                        -----------------------------------------
Total Dipole Moment    :     -0.00000      -0.00000       1.60643
                        -----------------------------------------
Magnitude (a.u.)       :      1.60643
Magnitude (Debye)      :      4.08322

Rotational constants in cm-1:     0.000000     0.540859     0.540859
Rotational constants in MHz :     0.000000 16214.556702 16214.556702

                             ****ORCA TERMINATED NORMALLY****
TOTAL RUN TIME: 0 days 0 hours 0 minutes 8 seconds 96 msec
