                         Program Version 4.2.0 -  RELEASE  -
|  1> #
|  2> # TMD13_Cu wB97M-V/Def2-TZVPPD
|  3> #
|  4> ! wb97m-v def2-tzvppd def2/jk grid4 nofinalgrid
|  5>
|  6> *xyz 0 2
|  7> Cu       0.000000    0.000000    0.000000
|  8> *
|  9>
| 10> %maxcore 5000
| 11>
| 12> %pal
| 13> nprocs = 24
| 14> end
| 15>
| 16>
| 17>                          ****END OF INPUT****

CARTESIAN COORDINATES (ANGSTROEM)
---------------------------------
  Cu     0.000000    0.000000    0.000000

 Total Charge           Charge          ....    0
 Multiplicity           Mult            ....    2
 Number of Electrons    NEL             ....   29
 Basis Dimension        Dim             ....   67

ORBITAL ENERGIES
----------------
                 SPIN UP ORBITALS
  NO   OCC          E(Eh)            E(eV)
   0   1.0000    -323.542588     -8804.0414
   1   1.0000     -39.052814     -1062.6811
   2   1.0000     -34.153690      -929.3692
   3   1.0000     -34.153690      -929.3692
   4   1.0000     -34.153690      -929.3692
   5   1.0000      -4.443817      -120.9224
   6   1.0000      -2.907764       -79.1243
   7   1.0000      -2.907764       -79.1243
   8   1.0000      -2.907764       -79.1243
   9   1.0000      -0.379557       -10.3283
  10   1.0000      -0.379557       -10.3283
  11   1.0000      -0.379557       -10.3283
  12   1.0000      -0.379557       -10.3283
  13   1.0000      -0.379557       -10.3283
  14   1.0000      -0.269278        -7.3274
  15   0.0000       0.028692         0.7808
  16   0.0000       0.028692         0.7808
  17   0.0000       0.028692         0.7808
  18   0.0000       0.132377         3.6022
  19   0.0000       0.172411         4.6915

                 SPIN DOWN ORBITALS
  NO   OCC          E(Eh)            E(eV)
   0   1.0000    -323.541339     -8804.0074
   1   1.0000     -39.050871     -1062.6282
   2   1.0000     -34.152274      -929.3306
   3   1.0000     -34.152274      -929.3306
   4   1.0000     -34.152274      -929.3306
   5   1.0000      -4.439499      -120.8049
   6   1.0000      -2.903882       -79.0187
   7   1.0000      -2.903882       -79.0187
   8   1.0000      -2.903882       -79.0187
   9   1.0000      -0.373843       -10.1728
  10   1.0000      -0.373843       -10.1728
  11   1.0000      -0.373843       -10.1728
  12   1.0000      -0.373843       -10.1728
  13   1.0000      -0.373843       -10.1728
  14   0.0000      -0.106781        -2.9056
  15   0.0000      -0.062314        -1.6957
  16   0.0000      -0.062314        -1.6956
  17   0.0000      -0.062314        -1.6956
  18   0.0000       0.092214         2.5093

MULLIKEN ATOMIC CHARGES AND SPIN POPULATIONS
--------------------------------------------
   0 Cu:    0.000000    1.000000
Sum of atomic charges         :    0.0000000

LOEWDIN ATOMIC CHARGES AND SPIN POPULATIONS
-------------------------------------------
   0 Cu:   -0.000000    1.000000

FINAL SINGLE POINT ENERGY     -1640.387647273866

DIPOLE MOMENT
-------------
                                X             Y             Z
Electronic contribution:      0.00000      -0.00000      -0.00000
Nuclear contribution   :      0.00000       0.00000       0.00000
                        -----------------------------------------
Total Dipole Moment    :      0.00000      -0.00000      -0.00000
                        -----------------------------------------
Magnitude (a.u.)       :      0.00000
Magnitude (Debye)      :      0.00000

Rotational constants in cm-1:     0.000000     0.000000     0.000000
Rotational constants in MHz :     0.000000     0.000000     0.000000

                             ****ORCA TERMINATED NORMALLY****
TOTAL RUN TIME: 0 days 0 hours 0 minutes 3 seconds 369 msec
