                         Program Version 4.2.0 -  RELEASE  -
|  1> #
|  2> # TMD19_FeCl wB97M-V/Def2-TZVPPD
|  3> #
|  4> ! wb97m-v def2-tzvppd def2/jk grid4 nofinalgrid
|  5>
|  6> *xyz 0 6
|  7> Fe       0.000000    0.000000    0.869767
|  8> Cl       0.000000    0.000000   -1.330233
|  9> *
| 10>
| 11> %maxcore 5000
| 12>
| 13> %pal
| 14> nprocs = 24
| 15> end
| 16>
| 17>
| 18>                          ****END OF INPUT****

CARTESIAN COORDINATES (ANGSTROEM)
---------------------------------
  Fe     0.000000    0.000000    0.869767
  Cl     0.000000    0.000000   -1.330233

 Total Charge           Charge          ....    0
 Multiplicity           Mult            ....    6
 Number of Electrons    NEL             ....   43
 Basis Dimension        Dim             ....  118

ORBITAL ENERGIES
----------------
                 SPIN UP ORBITALS
  NO   OCC          E(Eh)            E(eV)
   0   1.0000    -256.674036     -6984.4556
   1   1.0000    -101.847946     -2771.4235
   2   1.0000     -30.401184      -827.2583
   3   1.0000     -26.182417      -712.4598
   4   1.0000     -26.154022      -711.6871
   5   1.0000     -26.154022      -711.6871
   6   1.0000      -9.621281      -261.8084
   7   1.0000      -7.322503      -199.2554
   8   1.0000      -7.320023      -199.1879
   9   1.0000      -7.320023      -199.1879
  10   1.0000      -3.784158      -102.9722
  11   1.0000      -2.573004       -70.0150
  12   1.0000      -2.520042       -68.5738
  13   1.0000      -2.520042       -68.5738
  14   1.0000      -0.915171       -24.9031
  15   1.0000      -0.575880       -15.6705
  16   1.0000      -0.560490       -15.2517
  17   1.0000      -0.560490       -15.2517
  18   1.0000      -0.532228       -14.4827
  19   1.0000      -0.505834       -13.7644
  20   1.0000      -0.450061       -12.2468
  21   1.0000      -0.410905       -11.1813
  22   1.0000      -0.410905       -11.1813
  23   1.0000      -0.290600        -7.9076
  24   0.0000       0.010784         0.2934
  25   0.0000       0.010784         0.2934
  26   0.0000       0.036473         0.9925
  27   0.0000       0.072999         1.9864
  28   0.0000       0.088753         2.4151

                 SPIN DOWN ORBITALS
  NO   OCC          E(Eh)            E(eV)
   0   1.0000    -256.670857     -6984.3691
   1   1.0000    -101.846177     -2771.3754
   2   1.0000     -30.311417      -824.8156
   3   1.0000     -26.099707      -710.2091
   4   1.0000     -26.088572      -709.9061
   5   1.0000     -26.088572      -709.9061
   6   1.0000      -9.619746      -261.7666
   7   1.0000      -7.319219      -199.1661
   8   1.0000      -7.317807      -199.1277
   9   1.0000      -7.317807      -199.1277
  10   1.0000      -3.599235       -97.9402
  11   1.0000      -2.335727       -63.5584
  12   1.0000      -2.335727       -63.5584
  13   1.0000      -2.334777       -63.5325
  14   1.0000      -0.904868       -24.6227
  15   1.0000      -0.459774       -12.5111
  16   1.0000      -0.415374       -11.3029
  17   1.0000      -0.415374       -11.3029
  18   1.0000      -0.410337       -11.1658
  19   0.0000      -0.220575        -6.0021
  20   0.0000      -0.114887        -3.1262
  21   0.0000      -0.114885        -3.1262
  22   0.0000      -0.078790        -2.1440
  23   0.0000      -0.018497        -0.5033

MULLIKEN ATOMIC CHARGES AND SPIN POPULATIONS
--------------------------------------------
   0 Fe:    0.368179    4.852965
   1 Cl:   -0.368179    0.147035
Sum of atomic charges         :    0.0000000

LOEWDIN ATOMIC CHARGES AND SPIN POPULATIONS
-------------------------------------------
   0 Fe:    0.208981    4.681917
   1 Cl:   -0.208981    0.318083

  Mayer bond orders larger than 0.100000
B(  0-Fe,  1-Cl) :   0.8120

FINAL SINGLE POINT ENERGY     -1723.836523870252

DIPOLE MOMENT
-------------
                                X             Y             Z
Electronic contribution:      0.00000       0.00000       2.13681
Nuclear contribution   :      0.00000       0.00000      -1.26002
                        -----------------------------------------
Total Dipole Moment    :      0.00000       0.00000       0.87679
                        -----------------------------------------
Magnitude (a.u.)       :      0.87679
Magnitude (Debye)      :      2.22863

Rotational constants in cm-1:     0.000000     0.160606     0.160606
Rotational constants in MHz :     0.000000  4814.831818  4814.831818

                             ****ORCA TERMINATED NORMALLY****
TOTAL RUN TIME: 0 days 0 hours 0 minutes 5 seconds 988 msec
