                         Program Version 4.2.0 -  RELEASE  -
|  1> #
|  2> # TMD15_TiBr wB97M-V/Def2-TZVPPD
|  3> #
|  4> ! wb97m-v def2-tzvppd def2/jk grid4 nofinalgrid
|  5>
|  6> *xyz 0 4
|  7> Ti       0.000000    0.000000   -1.485965
|  8> Br       0.000000    0.000000    0.934035
|  9> *
| 10>
| 11> %maxcore 5000
| 12>
| 13> %pal
| 14> nprocs = 24
| 15> end
| 16>
| 17>
| 18>                          ****END OF INPUT****

CARTESIAN COORDINATES (ANGSTROEM)
---------------------------------
  Ti     0.000000    0.000000   -1.485965
  Br     0.000000    0.000000    0.934035

 Total Charge           Charge          ....    0
 Multiplicity           Mult            ....    4
 Number of Electrons    NEL             ....   57
 Basis Dimension        Dim             ....  124

ORBITAL ENERGIES
----------------
                 SPIN UP ORBITALS
  NO   OCC          E(Eh)            E(eV)
   0   1.0000    -483.459608    -13155.6047
   1   1.0000    -179.258622     -4877.8751
   2   1.0000     -62.765825     -1707.9449
   3   1.0000     -56.451309     -1536.1182
   4   1.0000     -56.450870     -1536.1063
   5   1.0000     -56.450870     -1536.1063
   6   1.0000     -20.050480      -545.6013
   7   1.0000     -16.695172      -454.2987
   8   1.0000     -16.685939      -454.0475
   9   1.0000     -16.685939      -454.0475
  10   1.0000      -8.848573      -240.7819
  11   1.0000      -6.628591      -180.3731
  12   1.0000      -6.626730      -180.3225
  13   1.0000      -6.626730      -180.3225
  14   1.0000      -2.710823       -73.7653
  15   1.0000      -2.710077       -73.7450
  16   1.0000      -2.710077       -73.7450
  17   1.0000      -2.708552       -73.7034
  18   1.0000      -2.708520       -73.7026
  19   1.0000      -2.487977       -67.7013
  20   1.0000      -1.598392       -43.4945
  21   1.0000      -1.585250       -43.1368
  22   1.0000      -1.585250       -43.1368
  23   1.0000      -0.839428       -22.8420
  24   1.0000      -0.402229       -10.9452
  25   1.0000      -0.369159       -10.0453
  26   1.0000      -0.369159       -10.0453
  27   1.0000      -0.272560        -7.4167
  28   1.0000      -0.272558        -7.4167
  29   1.0000      -0.265314        -7.2196
  30   0.0000      -0.023691        -0.6447
  31   0.0000       0.000605         0.0165
  32   0.0000       0.000605         0.0165
  33   0.0000       0.035721         0.9720
  34   0.0000       0.044762         1.2180

                 SPIN DOWN ORBITALS
  NO   OCC          E(Eh)            E(eV)
   0   1.0000    -483.459642    -13155.6057
   1   1.0000    -179.257775     -4877.8521
   2   1.0000     -62.765825     -1707.9449
   3   1.0000     -56.451347     -1536.1193
   4   1.0000     -56.450888     -1536.1068
   5   1.0000     -56.450888     -1536.1068
   6   1.0000     -20.024150      -544.8848
   7   1.0000     -16.683866      -453.9911
   8   1.0000     -16.659423      -453.3259
   9   1.0000     -16.659423      -453.3259
  10   1.0000      -8.848609      -240.7829
  11   1.0000      -6.628633      -180.3743
  12   1.0000      -6.626778      -180.3238
  13   1.0000      -6.626778      -180.3238
  14   1.0000      -2.710828       -73.7654
  15   1.0000      -2.710128       -73.7463
  16   1.0000      -2.710128       -73.7463
  17   1.0000      -2.708602       -73.7048
  18   1.0000      -2.708570       -73.7039
  19   1.0000      -2.411311       -65.6151
  20   1.0000      -1.545151       -42.0457
  21   1.0000      -1.480848       -40.2959
  22   1.0000      -1.480848       -40.2959
  23   1.0000      -0.838864       -22.8266
  24   1.0000      -0.396865       -10.7993
  25   1.0000      -0.368400       -10.0247
  26   1.0000      -0.368400       -10.0247
  27   0.0000      -0.178695        -4.8625
  28   0.0000      -0.136486        -3.7140
  29   0.0000      -0.136486        -3.7140
  30   0.0000      -0.070291        -1.9127
  31   0.0000      -0.031614        -0.8603

MULLIKEN ATOMIC CHARGES AND SPIN POPULATIONS
--------------------------------------------
   0 Ti:    0.288692    2.999062
   1 Br:   -0.288692    0.000938
Sum of atomic charges         :   -0.0000000

LOEWDIN ATOMIC CHARGES AND SPIN POPULATIONS
-------------------------------------------
   0 Ti:    0.033678    2.884917
   1 Br:   -0.033678    0.115083

  Mayer bond orders larger than 0.100000
B(  0-Ti,  1-Br) :   1.1783

FINAL SINGLE POINT ENERGY     -3423.386837527970

DIPOLE MOMENT
-------------
                                X             Y             Z
Electronic contribution:      0.00000       0.00000       0.73947
Nuclear contribution   :      0.00000       0.00000      -2.90920
                        -----------------------------------------
Total Dipole Moment    :      0.00000       0.00000      -2.16973
                        -----------------------------------------
Magnitude (a.u.)       :      2.16973
Magnitude (Debye)      :      5.51502

Rotational constants in cm-1:     0.000000     0.096120     0.096120
Rotational constants in MHz :     0.000000  2881.611529  2881.611529

                             ****ORCA TERMINATED NORMALLY****
TOTAL RUN TIME: 0 days 0 hours 0 minutes 8 seconds 988 msec
