                         Program Version 4.2.0 -  RELEASE  -
|  1> #
|  2> # TMD17_CrS wB97M-V/Def2-TZVPPD
|  3> #
|  4> ! wb97m-v def2-tzvppd def2/jk grid4 nofinalgrid
|  5>
|  6> *xyz 0 5
|  7> Cr       0.000000    0.000000    0.836000
|  8> S        0.000000    0.000000   -1.254000
|  9> *
| 10>
| 11> %maxcore 5000
| 12>
| 13> %pal
| 14> nprocs = 24
| 15> end
| 16>
| 17>
| 18>                          ****END OF INPUT****

CARTESIAN COORDINATES (ANGSTROEM)
---------------------------------
  Cr     0.000000    0.000000    0.836000
  S      0.000000    0.000000   -1.254000

 Total Charge           Charge          ....    0
 Multiplicity           Mult            ....    5
 Number of Electrons    NEL             ....   40
 Basis Dimension        Dim             ....  118

ORBITAL ENERGIES
----------------
                 SPIN UP ORBITALS
  NO   OCC          E(Eh)            E(eV)
   0   1.0000    -216.174293     -5882.4016
   1   1.0000     -89.140266     -2425.6300
   2   1.0000     -24.928111      -678.3284
   3   1.0000     -21.133234      -575.0645
   4   1.0000     -21.132016      -575.0314
   5   1.0000     -21.129453      -574.9616
   6   1.0000      -8.069336      -219.5778
   7   1.0000      -5.974727      -162.5806
   8   1.0000      -5.974701      -162.5799
   9   1.0000      -5.973428      -162.5452
  10   1.0000      -3.070006       -83.5391
  11   1.0000      -2.011131       -54.7256
  12   1.0000      -2.007830       -54.6358
  13   1.0000      -2.003286       -54.5122
  14   1.0000      -0.731774       -19.9126
  15   1.0000      -0.396312       -10.7842
  16   1.0000      -0.392921       -10.6919
  17   1.0000      -0.364352        -9.9145
  18   1.0000      -0.363400        -9.8886
  19   1.0000      -0.353959        -9.6317
  20   1.0000      -0.308402        -8.3920
  21   1.0000      -0.285628        -7.7723
  22   0.0000      -0.048574        -1.3218
  23   0.0000      -0.040326        -1.0973
  24   0.0000       0.017130         0.4661
  25   0.0000       0.021367         0.5814
  26   0.0000       0.038501         1.0477

                 SPIN DOWN ORBITALS
  NO   OCC          E(Eh)            E(eV)
   0   1.0000    -216.172842     -5882.3621
   1   1.0000     -89.144590     -2425.7476
   2   1.0000     -24.859723      -676.4675
   3   1.0000     -21.082144      -573.6743
   4   1.0000     -21.078505      -573.5753
   5   1.0000     -21.069846      -573.3397
   6   1.0000      -8.073017      -219.6780
   7   1.0000      -5.987363      -162.9244
   8   1.0000      -5.978998      -162.6968
   9   1.0000      -5.975845      -162.6110
  10   1.0000      -2.905040       -79.0502
  11   1.0000      -1.837236       -49.9937
  12   1.0000      -1.824974       -49.6601
  13   1.0000      -1.806655       -49.1616
  14   1.0000      -0.753472       -20.5030
  15   1.0000      -0.358643        -9.7592
  16   1.0000      -0.349542        -9.5115
  17   1.0000      -0.328422        -8.9368
  18   0.0000      -0.101054        -2.7498
  19   0.0000      -0.050478        -1.3736
  20   0.0000      -0.041408        -1.1268
  21   0.0000      -0.004906        -0.1335
  22   0.0000       0.035177         0.9572

MULLIKEN ATOMIC CHARGES AND SPIN POPULATIONS
--------------------------------------------
   0 Cr:    0.359611    4.707940
   1 S :   -0.359611   -0.707940
Sum of atomic charges         :   -0.0000000

LOEWDIN ATOMIC CHARGES AND SPIN POPULATIONS
-------------------------------------------
   0 Cr:    0.085832    4.465788
   1 S :   -0.085832   -0.465788

  Mayer bond orders larger than 0.100000
B(  0-Cr,  1-S ) :   1.8312

FINAL SINGLE POINT ENERGY     -1442.556393120712

DIPOLE MOMENT
-------------
                                X             Y             Z
Electronic contribution:      0.00000       0.00000       5.21978
Nuclear contribution   :      0.00000       0.00000      -2.93936
                        -----------------------------------------
Total Dipole Moment    :      0.00000       0.00000       2.28042
                        -----------------------------------------
Magnitude (a.u.)       :      2.28042
Magnitude (Debye)      :      5.79636

Rotational constants in cm-1:     0.000000     0.194593     0.194593
Rotational constants in MHz :     0.000000  5833.746532  5833.746532

                             ****ORCA TERMINATED NORMALLY****
TOTAL RUN TIME: 0 days 0 hours 0 minutes 9 seconds 900 msec
