                         Program Version 4.2.0 -  RELEASE  -
|  1> #
|  2> # TMD12_Co wB97M-V/Def2-TZVPPD
|  3> #
|  4> ! wb97m-v def2-tzvppd def2/jk grid4 nofinalgrid
|  5>
|  6> *xyz 0 4
|  7> Co       0.000000    0.000000    0.000000
|  8> *
|  9>
| 10> %maxcore 5000
| 11>
| 12> %pal
| 13> nprocs = 28
| 14> end
| 15>
| 16>
| 17>                          ****END OF INPUT****

CARTESIAN COORDINATES (ANGSTROEM)
---------------------------------
  Co     0.000000    0.000000    0.000000

 Total Charge           Charge          ....    0
 Multiplicity           Mult            ....    4
 Number of Electrons    NEL             ....   27
 Basis Dimension        Dim             ....   67

ORBITAL ENERGIES
----------------
                 SPIN UP ORBITALS
  NO   OCC          E(Eh)            E(eV)
   0   1.0000    -278.147165     -7568.7691
   1   1.0000     -33.231188      -904.2666
   2   1.0000     -28.771905      -782.9233
   3   1.0000     -28.771874      -782.9225
   4   1.0000     -28.771836      -782.9215
   5   1.0000      -4.057770      -110.4175
   6   1.0000      -2.716161       -73.9105
   7   1.0000      -2.716095       -73.9087
   8   1.0000      -2.716027       -73.9068
   9   1.0000      -0.552454       -15.0330
  10   1.0000      -0.552421       -15.0321
  11   1.0000      -0.552389       -15.0313
  12   1.0000      -0.522356       -14.2140
  13   1.0000      -0.522356       -14.2140
  14   1.0000      -0.302970        -8.2442
  15   0.0000       0.015610         0.4248
  16   0.0000       0.015613         0.4248
  17   0.0000       0.015643         0.4257
  18   0.0000       0.145602         3.9620
  19   0.0000       0.145606         3.9621

                 SPIN DOWN ORBITALS
  NO   OCC          E(Eh)            E(eV)
   0   1.0000    -278.145621     -7568.7271
   1   1.0000     -33.154260      -902.1733
   2   1.0000     -28.711511      -781.2799
   3   1.0000     -28.711507      -781.2798
   4   1.0000     -28.711484      -781.2792
   5   1.0000      -3.908976      -106.3686
   6   1.0000      -2.552142       -69.4473
   7   1.0000      -2.552140       -69.4473
   8   1.0000      -2.552098       -69.4461
   9   1.0000      -0.450791       -12.2667
  10   1.0000      -0.450787       -12.2665
  11   1.0000      -0.287750        -7.8301
  12   0.0000      -0.008221        -0.2237
  13   0.0000      -0.008175        -0.2224
  14   0.0000      -0.008107        -0.2206
  15   0.0000       0.022995         0.6257
  16   0.0000       0.022997         0.6258

MULLIKEN ATOMIC CHARGES AND SPIN POPULATIONS
--------------------------------------------
   0 Co:   -0.000000    3.000000
Sum of atomic charges         :   -0.0000000

LOEWDIN ATOMIC CHARGES AND SPIN POPULATIONS
-------------------------------------------
   0 Co:   -0.000000    3.000000

FINAL SINGLE POINT ENERGY     -1382.646252749348

DIPOLE MOMENT
-------------
                                X             Y             Z
Electronic contribution:     -0.00000      -0.00000       0.00000
Nuclear contribution   :      0.00000       0.00000       0.00000
                        -----------------------------------------
Total Dipole Moment    :     -0.00000      -0.00000       0.00000
                        -----------------------------------------
Magnitude (a.u.)       :      0.00000
Magnitude (Debye)      :      0.00000

Rotational constants in cm-1:     0.000000     0.000000     0.000000
Rotational constants in MHz :     0.000000     0.000000     0.000000

                             ****ORCA TERMINATED NORMALLY****
TOTAL RUN TIME: 0 days 0 hours 0 minutes 48 seconds 555 msec
