                         Program Version 4.2.0 -  RELEASE  -
|  1> #
|  2> # TMD10_Mn wB97M-V/Def2-TZVPPD
|  3> #
|  4> ! wb97m-v def2-tzvppd def2/jk grid4 nofinalgrid
|  5>
|  6> *xyz 0 6
|  7> Mn       0.000000    0.000000    0.000000
|  8> *
|  9>
| 10> %maxcore 5000
| 11>
| 12> %pal
| 13> nprocs = 24
| 14> end
| 15>
| 16>
| 17>                          ****END OF INPUT****

CARTESIAN COORDINATES (ANGSTROEM)
---------------------------------
  Mn     0.000000    0.000000    0.000000

 Total Charge           Charge          ....    0
 Multiplicity           Mult            ....    6
 Number of Electrons    NEL             ....   25
 Basis Dimension        Dim             ....   67

ORBITAL ENERGIES
----------------
                 SPIN UP ORBITALS
  NO   OCC          E(Eh)            E(eV)
   0   1.0000    -236.005739     -6422.0426
   1   1.0000     -27.632645      -751.9225
   2   1.0000     -23.614046      -642.5709
   3   1.0000     -23.614046      -642.5709
   4   1.0000     -23.614045      -642.5708
   5   1.0000      -3.460607       -94.1679
   6   1.0000      -2.306669       -62.7676
   7   1.0000      -2.306669       -62.7676
   8   1.0000      -2.306668       -62.7676
   9   1.0000      -0.482167       -13.1204
  10   1.0000      -0.482166       -13.1204
  11   1.0000      -0.482166       -13.1204
  12   1.0000      -0.482166       -13.1204
  13   1.0000      -0.482166       -13.1204
  14   1.0000      -0.288937        -7.8624
  15   0.0000       0.008301         0.2259
  16   0.0000       0.008303         0.2259
  17   0.0000       0.008303         0.2259
  18   0.0000       0.119015         3.2386
  19   0.0000       0.119017         3.2386

                 SPIN DOWN ORBITALS
  NO   OCC          E(Eh)            E(eV)
   0   1.0000    -236.003780     -6421.9893
   1   1.0000     -27.535360      -749.2752
   2   1.0000     -23.536494      -640.4606
   3   1.0000     -23.536493      -640.4605
   4   1.0000     -23.536492      -640.4605
   5   1.0000      -3.243148       -88.2505
   6   1.0000      -2.065903       -56.2161
   7   1.0000      -2.065901       -56.2160
   8   1.0000      -2.065901       -56.2160
   9   1.0000      -0.260143        -7.0789
  10   0.0000       0.022138         0.6024
  11   0.0000       0.022139         0.6024
  12   0.0000       0.022139         0.6024
  13   0.0000       0.045726         1.2443
  14   0.0000       0.045727         1.2443

MULLIKEN ATOMIC CHARGES AND SPIN POPULATIONS
--------------------------------------------
   0 Mn:   -0.000000    5.000000
Sum of atomic charges         :   -0.0000000

LOEWDIN ATOMIC CHARGES AND SPIN POPULATIONS
-------------------------------------------
   0 Mn:   -0.000000    5.000000

FINAL SINGLE POINT ENERGY     -1150.913856324939

DIPOLE MOMENT
-------------
                                X             Y             Z
Electronic contribution:     -0.00000      -0.00000      -0.00000
Nuclear contribution   :      0.00000       0.00000       0.00000
                        -----------------------------------------
Total Dipole Moment    :     -0.00000      -0.00000      -0.00000
                        -----------------------------------------
Magnitude (a.u.)       :      0.00000
Magnitude (Debye)      :      0.00000

Rotational constants in cm-1:     0.000000     0.000000     0.000000
Rotational constants in MHz :     0.000000     0.000000     0.000000

                             ****ORCA TERMINATED NORMALLY****
TOTAL RUN TIME: 0 days 0 hours 0 minutes 4 seconds 578 msec
