                         Program Version 4.2.0 -  RELEASE  -
|  1> #
|  2> # TMD18_MnBr wB97M-V/Def2-TZVPPD
|  3> #
|  4> ! wb97m-v def2-tzvppd def2/jk grid4 nofinalgrid
|  5>
|  6> *xyz 0 7
|  7> Mn       0.000000    0.000000   -1.400000
|  8> Br       0.000000    0.000000    1.000000
|  9> *
| 10>
| 11> %maxcore 5000
| 12>
| 13> %pal
| 14> nprocs = 24
| 15> end
| 16>
| 17>
| 18>                          ****END OF INPUT****

CARTESIAN COORDINATES (ANGSTROEM)
---------------------------------
  Mn     0.000000    0.000000   -1.400000
  Br     0.000000    0.000000    1.000000

 Total Charge           Charge          ....    0
 Multiplicity           Mult            ....    7
 Number of Electrons    NEL             ....   60
 Basis Dimension        Dim             ....  124

ORBITAL ENERGIES
----------------
                 SPIN UP ORBITALS
  NO   OCC          E(Eh)            E(eV)
   0   1.0000    -483.476643    -13156.0683
   1   1.0000    -236.041584     -6423.0180
   2   1.0000     -62.782586     -1708.4010
   3   1.0000     -56.468586     -1536.5883
   4   1.0000     -56.467638     -1536.5625
   5   1.0000     -56.467638     -1536.5625
   6   1.0000     -27.666465      -752.8428
   7   1.0000     -23.648805      -643.5167
   8   1.0000     -23.648805      -643.5167
   9   1.0000     -23.647165      -643.4721
  10   1.0000      -8.865583      -241.2448
  11   1.0000      -6.646512      -180.8608
  12   1.0000      -6.643383      -180.7757
  13   1.0000      -6.643383      -180.7756
  14   1.0000      -3.495843       -95.1267
  15   1.0000      -2.728459       -74.2451
  16   1.0000      -2.727451       -74.2177
  17   1.0000      -2.727451       -74.2177
  18   1.0000      -2.725007       -74.1512
  19   1.0000      -2.724973       -74.1503
  20   1.0000      -2.344185       -63.7885
  21   1.0000      -2.344185       -63.7885
  22   1.0000      -2.338747       -63.6405
  23   1.0000      -0.862785       -23.4776
  24   1.0000      -0.529305       -14.4031
  25   1.0000      -0.522355       -14.2140
  26   1.0000      -0.522355       -14.2140
  27   1.0000      -0.521894       -14.2015
  28   1.0000      -0.521892       -14.2014
  29   1.0000      -0.421659       -11.4739
  30   1.0000      -0.378920       -10.3109
  31   1.0000      -0.378920       -10.3109
  32   1.0000      -0.284844        -7.7510
  33   0.0000       0.002852         0.0776
  34   0.0000       0.002852         0.0776
  35   0.0000       0.030704         0.8355
  36   0.0000       0.061762         1.6806
  37   0.0000       0.069907         1.9023

                 SPIN DOWN ORBITALS
  NO   OCC          E(Eh)            E(eV)
   0   1.0000    -483.476076    -13156.0529
   1   1.0000    -236.038345     -6422.9299
   2   1.0000     -62.782389     -1708.3957
   3   1.0000     -56.467786     -1536.5666
   4   1.0000     -56.467234     -1536.5515
   5   1.0000     -56.467233     -1536.5515
   6   1.0000     -27.569239      -750.1971
   7   1.0000     -23.571005      -641.3997
   8   1.0000     -23.571005      -641.3997
   9   1.0000     -23.569612      -641.3618
  10   1.0000      -8.864831      -241.2243
  11   1.0000      -6.645217      -180.8256
  12   1.0000      -6.642664      -180.7561
  13   1.0000      -6.642664      -180.7561
  14   1.0000      -3.278443       -89.2110
  15   1.0000      -2.727298       -74.2135
  16   1.0000      -2.726412       -74.1894
  17   1.0000      -2.726412       -74.1894
  18   1.0000      -2.724302       -74.1320
  19   1.0000      -2.724268       -74.1311
  20   1.0000      -2.104617       -57.2695
  21   1.0000      -2.104617       -57.2695
  22   1.0000      -2.099323       -57.1255
  23   1.0000      -0.853789       -23.2328
  24   1.0000      -0.421662       -11.4740
  25   1.0000      -0.382705       -10.4139
  26   1.0000      -0.382704       -10.4139
  27   0.0000      -0.196632        -5.3506
  28   0.0000      -0.113909        -3.0996
  29   0.0000      -0.113907        -3.0996
  30   0.0000      -0.072920        -1.9843
  31   0.0000      -0.010772        -0.2931

MULLIKEN ATOMIC CHARGES AND SPIN POPULATIONS
--------------------------------------------
   0 Mn:    0.335713    5.929663
   1 Br:   -0.335713    0.070337
Sum of atomic charges         :   -0.0000000

LOEWDIN ATOMIC CHARGES AND SPIN POPULATIONS
-------------------------------------------
   0 Mn:    0.217943    5.712057
   1 Br:   -0.217943    0.287943

  Mayer bond orders larger than 0.100000
B(  0-Mn,  1-Br) :   0.7685

FINAL SINGLE POINT ENERGY     -3724.979647663942

DIPOLE MOMENT
-------------
                                X             Y             Z
Electronic contribution:      0.00001       0.00000       1.44679
Nuclear contribution   :      0.00000       0.00000      -2.50917
                        -----------------------------------------
Total Dipole Moment    :      0.00001       0.00000      -1.06238
                        -----------------------------------------
Magnitude (a.u.)       :      1.06238
Magnitude (Debye)      :      2.70035

Rotational constants in cm-1:     0.000000     0.089900     0.089900
Rotational constants in MHz :     0.000000  2695.122005  2695.122005

                             ****ORCA TERMINATED NORMALLY****
TOTAL RUN TIME: 0 days 0 hours 0 minutes 10 seconds 986 msec
