                         Program Version 4.2.0 -  RELEASE  -
|  1> #
|  2> # TMD14_Zn wB97M-V/Def2-TZVPPD
|  3> #
|  4> ! wb97m-v def2-tzvppd def2/jk grid4 nofinalgrid
|  5>
|  6> *xyz 0 1
|  7> Zn       0.000000    0.000000    0.000000
|  8> *
|  9>
| 10> %maxcore 5000
| 11>
| 12> %pal
| 13> nprocs = 24
| 14> end
| 15>
| 16>
| 17>                          ****END OF INPUT****

CARTESIAN COORDINATES (ANGSTROEM)
---------------------------------
  Zn     0.000000    0.000000    0.000000

 Total Charge           Charge          ....    0
 Multiplicity           Mult            ....    1
 Number of Electrons    NEL             ....   30
 Basis Dimension        Dim             ....   67

ORBITAL ENERGIES
----------------

  NO   OCC          E(Eh)            E(eV)
   0   2.0000    -347.809857     -9464.3874
   1   2.0000     -42.465766     -1155.5522
   2   2.0000     -37.336027     -1015.9649
   3   2.0000     -37.336027     -1015.9649
   4   2.0000     -37.336027     -1015.9649
   5   2.0000      -4.974222      -135.3555
   6   2.0000      -3.332107       -90.6712
   7   2.0000      -3.332107       -90.6712
   8   2.0000      -3.332107       -90.6712
   9   2.0000      -0.585688       -15.9374
  10   2.0000      -0.585688       -15.9374
  11   2.0000      -0.585688       -15.9374
  12   2.0000      -0.585688       -15.9374
  13   2.0000      -0.585688       -15.9374
  14   2.0000      -0.319901        -8.7050
  15   0.0000       0.012324         0.3353
  16   0.0000       0.012324         0.3354
  17   0.0000       0.012324         0.3354
  18   0.0000       0.081891         2.2284
  19   0.0000       0.081892         2.2284

MULLIKEN ATOMIC CHARGES
-----------------------
   0 Zn:   -0.000000
Sum of atomic charges:   -0.0000000

LOEWDIN ATOMIC CHARGES
----------------------
   0 Zn:   -0.000000

FINAL SINGLE POINT ENERGY     -1779.297356569184

DIPOLE MOMENT
-------------
                                X             Y             Z
Electronic contribution:     -0.00000      -0.00000       0.00000
Nuclear contribution   :      0.00000       0.00000       0.00000
                        -----------------------------------------
Total Dipole Moment    :     -0.00000      -0.00000       0.00000
                        -----------------------------------------
Magnitude (a.u.)       :      0.00000
Magnitude (Debye)      :      0.00000

Rotational constants in cm-1:     0.000000     0.000000     0.000000
Rotational constants in MHz :     0.000000     0.000000     0.000000

                             ****ORCA TERMINATED NORMALLY****
TOTAL RUN TIME: 0 days 0 hours 0 minutes 3 seconds 523 msec
