                         Program Version 4.2.0 -  RELEASE  -
|  1> #
|  2> # TMD24_ZnS wB97M-V/Def2-TZVPPD
|  3> #
|  4> ! wb97m-v def2-tzvppd def2/jk grid4 nofinalgrid
|  5>
|  6> *xyz 0 1
|  7> Zn       0.000000    0.000000    0.720000
|  8> S        0.000000    0.000000   -1.350000
|  9> *
| 10>
| 11> %maxcore 5000
| 12>
| 13> %pal
| 14> nprocs = 24
| 15> end
| 16>
| 17>
| 18>                          ****END OF INPUT****

CARTESIAN COORDINATES (ANGSTROEM)
---------------------------------
  Zn     0.000000    0.000000    0.720000
  S      0.000000    0.000000   -1.350000

 Total Charge           Charge          ....    0
 Multiplicity           Mult            ....    1
 Number of Electrons    NEL             ....   46
 Basis Dimension        Dim             ....  118

ORBITAL ENERGIES
----------------

  NO   OCC          E(Eh)            E(eV)
   0   2.0000    -347.894763     -9466.6978
   1   2.0000     -89.151237     -2425.9285
   2   2.0000     -42.550592     -1157.8605
   3   2.0000     -37.421009     -1018.2774
   4   2.0000     -37.421009     -1018.2774
   5   2.0000     -37.420653     -1018.2677
   6   2.0000      -8.078027      -219.8143
   7   2.0000      -5.990313      -163.0047
   8   2.0000      -5.981474      -162.7642
   9   2.0000      -5.981474      -162.7642
  10   2.0000      -5.061466      -137.7295
  11   2.0000      -3.421999       -93.1173
  12   2.0000      -3.418191       -93.0137
  13   2.0000      -3.418191       -93.0137
  14   2.0000      -0.770971       -20.9792
  15   2.0000      -0.675927       -18.3929
  16   2.0000      -0.675927       -18.3929
  17   2.0000      -0.669524       -18.2187
  18   2.0000      -0.669520       -18.2186
  19   2.0000      -0.661769       -18.0077
  20   2.0000      -0.397136       -10.8066
  21   2.0000      -0.318187        -8.6583
  22   2.0000      -0.318187        -8.6583
  23   0.0000      -0.090356        -2.4587
  24   0.0000       0.006835         0.1860
  25   0.0000       0.006835         0.1860
  26   0.0000       0.021227         0.5776
  27   0.0000       0.063402         1.7252

MULLIKEN ATOMIC CHARGES
-----------------------
   0 Zn:    0.283062
   1 S :   -0.283062
Sum of atomic charges:   -0.0000000

LOEWDIN ATOMIC CHARGES
----------------------
   0 Zn:    0.364531
   1 S :   -0.364531

  Mayer bond orders larger than 0.100000
B(  0-Zn,  1-S ) :   1.7356

FINAL SINGLE POINT ENERGY     -2177.440865814065

DIPOLE MOMENT
-------------
                                X             Y             Z
Electronic contribution:      0.00000      -0.00000       5.72137
Nuclear contribution   :      0.00000       0.00000      -3.38342
                        -----------------------------------------
Total Dipole Moment    :      0.00000      -0.00000       2.33795
                        -----------------------------------------
Magnitude (a.u.)       :      2.33795
Magnitude (Debye)      :      5.94259

Rotational constants in cm-1:     0.000000     0.182888     0.182888
Rotational constants in MHz :     0.000000  5482.842292  5482.842292

                             ****ORCA TERMINATED NORMALLY****
TOTAL RUN TIME: 0 days 0 hours 0 minutes 5 seconds 368 msec
