                         Program Version 4.2.0 -  RELEASE  -
|  1> #
|  2> # TMD21_CoH wB97M-V/Def2-TZVPPD
|  3> #
|  4> ! wb97m-v def2-tzvppd def2/jk grid4 nofinalgrid
|  5>
|  6> *xyz 0 3
|  7> Co       0.000000    0.000000    0.053929
|  8> H        0.000000    0.000000   -1.456071
|  9> *
| 10>
| 11> %maxcore 5000
| 12>
| 13> %pal
| 14> nprocs = 24
| 15> end
| 16>
| 17>
| 18>                          ****END OF INPUT****

CARTESIAN COORDINATES (ANGSTROEM)
---------------------------------
  Co     0.000000    0.000000    0.053929
  H      0.000000    0.000000   -1.456071

 Total Charge           Charge          ....    0
 Multiplicity           Mult            ....    3
 Number of Electrons    NEL             ....   28
 Basis Dimension        Dim             ....   84

ORBITAL ENERGIES
----------------
                 SPIN UP ORBITALS
  NO   OCC          E(Eh)            E(eV)
   0   1.0000    -277.980782     -7564.2416
   1   1.0000     -33.029815      -898.7869
   2   1.0000     -28.576329      -777.6014
   3   1.0000     -28.576329      -777.6014
   4   1.0000     -28.575032      -777.5662
   5   1.0000      -3.852964      -104.8445
   6   1.0000      -2.514742       -68.4296
   7   1.0000      -2.514292       -68.4174
   8   1.0000      -2.514292       -68.4174
   9   1.0000      -0.412170       -11.2157
  10   1.0000      -0.376457       -10.2439
  11   1.0000      -0.351621        -9.5681
  12   1.0000      -0.351621        -9.5681
  13   1.0000      -0.348744        -9.4898
  14   1.0000      -0.312331        -8.4990
  15   0.0000      -0.014766        -0.4018
  16   0.0000       0.029157         0.7934
  17   0.0000       0.029157         0.7934
  18   0.0000       0.099981         2.7206
  19   0.0000       0.114529         3.1165

                 SPIN DOWN ORBITALS
  NO   OCC          E(Eh)            E(eV)
   0   1.0000    -277.979693     -7564.2120
   1   1.0000     -32.984648      -897.5579
   2   1.0000     -28.542558      -776.6825
   3   1.0000     -28.539511      -776.5996
   4   1.0000     -28.539511      -776.5996
   5   1.0000      -3.763383      -102.4069
   6   1.0000      -2.418583       -65.8130
   7   1.0000      -2.415071       -65.7174
   8   1.0000      -2.415071       -65.7174
   9   1.0000      -0.369582       -10.0568
  10   1.0000      -0.307052        -8.3553
  11   1.0000      -0.307052        -8.3553
  12   1.0000      -0.305791        -8.3210
  13   0.0000      -0.034333        -0.9342
  14   0.0000       0.007773         0.2115
  15   0.0000       0.007773         0.2115
  16   0.0000       0.045284         1.2323
  17   0.0000       0.093384         2.5411

MULLIKEN ATOMIC CHARGES AND SPIN POPULATIONS
--------------------------------------------
   0 Co:    0.027237    2.071931
   1 H :   -0.027237   -0.071931
Sum of atomic charges         :   -0.0000000

LOEWDIN ATOMIC CHARGES AND SPIN POPULATIONS
-------------------------------------------
   0 Co:    0.234832    1.992536
   1 H :   -0.234832    0.007464

  Mayer bond orders larger than 0.100000
B(  0-Co,  1-H ) :   0.9801

FINAL SINGLE POINT ENERGY     -1383.229716475380

DIPOLE MOMENT
-------------
                                X             Y             Z
Electronic contribution:     -0.00000      -0.00000       2.78474
Nuclear contribution   :      0.00000       0.00000      -1.50982
                        -----------------------------------------
Total Dipole Moment    :     -0.00000      -0.00000       1.27492
                        -----------------------------------------
Magnitude (a.u.)       :      1.27492
Magnitude (Debye)      :      3.24060

Rotational constants in cm-1:     0.000000     7.460162     7.460162
Rotational constants in MHz :     0.000000 223650.041735 223650.041735

                             ****ORCA TERMINATED NORMALLY****
TOTAL RUN TIME: 0 days 0 hours 0 minutes 4 seconds 796 msec
