                         Program Version 4.2.0 -  RELEASE  -
|  1> #
|  2> # TMD20_FeS wB97M-V/Def2-TZVPPD
|  3> #
|  4> ! wb97m-v def2-tzvppd def2/jk grid4 nofinalgrid
|  5>
|  6> *xyz 0 5
|  7> Fe       0.000000    0.000000    0.769524
|  8> S        0.000000    0.000000   -1.250476
|  9> *
| 10>
| 11> %maxcore 5000
| 12>
| 13> %pal
| 14> nprocs = 24
| 15> end
| 16>
| 17>
| 18>                          ****END OF INPUT****

CARTESIAN COORDINATES (ANGSTROEM)
---------------------------------
  Fe     0.000000    0.000000    0.769524
  S      0.000000    0.000000   -1.250476

 Total Charge           Charge          ....    0
 Multiplicity           Mult            ....    5
 Number of Electrons    NEL             ....   42
 Basis Dimension        Dim             ....  118

ORBITAL ENERGIES
----------------
                 SPIN UP ORBITALS
  NO   OCC          E(Eh)            E(eV)
   0   1.0000    -256.613882     -6982.8187
   1   1.0000     -89.131605     -2425.3943
   2   1.0000     -30.327945      -825.2653
   3   1.0000     -26.106915      -710.4053
   4   1.0000     -26.084962      -709.8079
   5   1.0000     -26.084962      -709.8079
   6   1.0000      -8.060201      -219.3292
   7   1.0000      -5.967427      -162.3820
   8   1.0000      -5.967186      -162.3754
   9   1.0000      -5.967186      -162.3754
  10   1.0000      -3.707549      -100.8875
  11   1.0000      -2.493866       -67.8615
  12   1.0000      -2.447077       -66.5884
  13   1.0000      -2.447077       -66.5884
  14   1.0000      -0.750832       -20.4312
  15   1.0000      -0.496741       -13.5170
  16   1.0000      -0.495500       -13.4832
  17   1.0000      -0.495500       -13.4832
  18   1.0000      -0.467142       -12.7116
  19   1.0000      -0.441421       -12.0117
  20   1.0000      -0.345320        -9.3966
  21   1.0000      -0.307980        -8.3806
  22   1.0000      -0.307980        -8.3806
  23   0.0000      -0.061175        -1.6647
  24   0.0000       0.022476         0.6116
  25   0.0000       0.022476         0.6116
  26   0.0000       0.042264         1.1501
  27   0.0000       0.076473         2.0809

                 SPIN DOWN ORBITALS
  NO   OCC          E(Eh)            E(eV)
   0   1.0000    -256.611882     -6982.7643
   1   1.0000     -89.129427     -2425.3350
   2   1.0000     -30.250792      -823.1659
   3   1.0000     -26.039325      -708.5660
   4   1.0000     -26.027082      -708.2329
   5   1.0000     -26.027082      -708.2329
   6   1.0000      -8.058332      -219.2784
   7   1.0000      -5.966863      -162.3666
   8   1.0000      -5.962530      -162.2487
   9   1.0000      -5.962530      -162.2487
  10   1.0000      -3.549254       -96.5801
  11   1.0000      -2.294627       -62.4400
  12   1.0000      -2.286291       -62.2132
  13   1.0000      -2.286291       -62.2132
  14   1.0000      -0.733572       -19.9615
  15   1.0000      -0.368340       -10.0230
  16   1.0000      -0.361807        -9.8453
  17   1.0000      -0.324377        -8.8268
  18   1.0000      -0.324377        -8.8268
  19   0.0000      -0.087476        -2.3804
  20   0.0000      -0.027791        -0.7562
  21   0.0000      -0.027791        -0.7562
  22   0.0000      -0.014294        -0.3890
  23   0.0000       0.026100         0.7102

MULLIKEN ATOMIC CHARGES AND SPIN POPULATIONS
--------------------------------------------
   0 Fe:    0.398232    3.594642
   1 S :   -0.398232    0.405358
Sum of atomic charges         :   -0.0000000

LOEWDIN ATOMIC CHARGES AND SPIN POPULATIONS
-------------------------------------------
   0 Fe:    0.139056    3.524091
   1 S :   -0.139056    0.475909

  Mayer bond orders larger than 0.100000
B(  0-Fe,  1-S ) :   2.1178

FINAL SINGLE POINT ENERGY     -1661.798703485539

DIPOLE MOMENT
-------------
                                X             Y             Z
Electronic contribution:     -0.00000       0.00000       5.15591
Nuclear contribution   :      0.00000       0.00000      -2.60707
                        -----------------------------------------
Total Dipole Moment    :     -0.00000       0.00000       2.54884
                        -----------------------------------------
Magnitude (a.u.)       :      2.54884
Magnitude (Debye)      :      6.47864

Rotational constants in cm-1:     0.000000     0.202836     0.202836
Rotational constants in MHz :     0.000000  6080.880231  6080.880231

                             ****ORCA TERMINATED NORMALLY****
TOTAL RUN TIME: 0 days 0 hours 0 minutes 6 seconds 893 msec
