                         Program Version 4.2.0 -  RELEASE  -
|  1> #
|  2> # TMD23_CuBr wB97M-V/Def2-TZVPPD
|  3> #
|  4> ! wb97m-v def2-tzvppd def2/jk grid4 nofinalgrid
|  5>
|  6> *xyz 0 1
|  7> Cu       0.000000    0.000000   -1.208594
|  8> Br       0.000000    0.000000    1.001406
|  9> *
| 10>
| 11> %maxcore 5000
| 12>
| 13> %pal
| 14> nprocs = 24
| 15> end
| 16>
| 17>
| 18>                          ****END OF INPUT****

CARTESIAN COORDINATES (ANGSTROEM)
---------------------------------
  Cu     0.000000    0.000000   -1.208594
  Br     0.000000    0.000000    1.001406

 Total Charge           Charge          ....    0
 Multiplicity           Mult            ....    1
 Number of Electrons    NEL             ....   64
 Basis Dimension        Dim             ....  124

ORBITAL ENERGIES
----------------

  NO   OCC          E(Eh)            E(eV)
   0   2.0000    -483.460006    -13155.6156
   1   2.0000    -323.587913     -8805.2748
   2   2.0000     -62.765776     -1707.9436
   3   2.0000     -56.451980     -1536.1365
   4   2.0000     -56.450519     -1536.0967
   5   2.0000     -56.450519     -1536.0967
   6   2.0000     -39.098148     -1063.9147
   7   2.0000     -34.199529      -930.6165
   8   2.0000     -34.199529      -930.6165
   9   2.0000     -34.198676      -930.5933
  10   2.0000      -8.848393      -240.7770
  11   2.0000      -6.630690      -180.4302
  12   2.0000      -6.625356      -180.2851
  13   2.0000      -6.625356      -180.2851
  14   2.0000      -4.490127      -122.1826
  15   2.0000      -2.957513       -80.4780
  16   2.0000      -2.952914       -80.3529
  17   2.0000      -2.952914       -80.3529
  18   2.0000      -2.712284       -73.8050
  19   2.0000      -2.710679       -73.7613
  20   2.0000      -2.710679       -73.7613
  21   2.0000      -2.706490       -73.6473
  22   2.0000      -2.706456       -73.6464
  23   2.0000      -0.840397       -22.8684
  24   2.0000      -0.452887       -12.3237
  25   2.0000      -0.438314       -11.9271
  26   2.0000      -0.438314       -11.9271
  27   2.0000      -0.422392       -11.4939
  28   2.0000      -0.422387       -11.4937
  29   2.0000      -0.375190       -10.2094
  30   2.0000      -0.350280        -9.5316
  31   2.0000      -0.350280        -9.5316
  32   0.0000      -0.055002        -1.4967
  33   0.0000       0.027082         0.7369
  34   0.0000       0.027082         0.7369
  35   0.0000       0.040353         1.0981
  36   0.0000       0.076463         2.0807

MULLIKEN ATOMIC CHARGES
-----------------------
   0 Cu:    0.194987
   1 Br:   -0.194987
Sum of atomic charges:    0.0000000

LOEWDIN ATOMIC CHARGES
----------------------
   0 Cu:    0.022334
   1 Br:   -0.022334

  Mayer bond orders larger than 0.100000
B(  0-Cu,  1-Br) :   1.1480

FINAL SINGLE POINT ENERGY     -4214.490647257991

DIPOLE MOMENT
-------------
                                X             Y             Z
Electronic contribution:      0.00000       0.00000       0.61819
Nuclear contribution   :      0.00000       0.00000      -2.70316
                        -----------------------------------------
Total Dipole Moment    :      0.00000       0.00000      -2.08497
                        -----------------------------------------
Magnitude (a.u.)       :      2.08497
Magnitude (Debye)      :      5.29958

Rotational constants in cm-1:     0.000000     0.097510     0.097510
Rotational constants in MHz :     0.000000  2923.285786  2923.285786

                             ****ORCA TERMINATED NORMALLY****
TOTAL RUN TIME: 0 days 0 hours 0 minutes 6 seconds 331 msec
