                         Program Version 4.2.0 -  RELEASE  -
|  1> #
|  2> # TMD22_CoF wB97M-V/Def2-TZVPPD
|  3> #
|  4> ! wb97m-v def2-tzvppd def2/jk grid4 nofinalgrid
|  5>
|  6> *xyz 0 3
|  7> Co       0.000000    0.000000    0.440000
|  8> F        0.000000    0.000000   -1.320000
|  9> *
| 10>
| 11> %maxcore 5000
| 12>
| 13> %pal
| 14> nprocs = 24
| 15> end
| 16>
| 17>
| 18>                          ****END OF INPUT****

CARTESIAN COORDINATES (ANGSTROEM)
---------------------------------
  Co     0.000000    0.000000    0.440000
  F      0.000000    0.000000   -1.320000

 Total Charge           Charge          ....    0
 Multiplicity           Mult            ....    3
 Number of Electrons    NEL             ....   36
 Basis Dimension        Dim             ....  107

ORBITAL ENERGIES
----------------
                 SPIN UP ORBITALS
  NO   OCC          E(Eh)            E(eV)
   0   1.0000    -278.032450     -7565.6476
   1   1.0000     -33.088905      -900.3949
   2   1.0000     -28.639993      -779.3338
   3   1.0000     -28.632906      -779.1410
   4   1.0000     -28.628557      -779.0226
   5   1.0000     -24.805038      -674.9794
   6   1.0000      -3.917957      -106.6130
   7   1.0000      -2.587091       -70.3983
   8   1.0000      -2.583589       -70.3030
   9   1.0000      -2.567827       -69.8741
  10   1.0000      -1.197565       -32.5874
  11   1.0000      -0.507081       -13.7984
  12   1.0000      -0.483100       -13.1458
  13   1.0000      -0.469544       -12.7770
  14   1.0000      -0.427590       -11.6353
  15   1.0000      -0.404081       -10.9956
  16   1.0000      -0.400523       -10.8988
  17   1.0000      -0.376565       -10.2468
  18   1.0000      -0.368320       -10.0225
  19   0.0000      -0.054389        -1.4800
  20   0.0000       0.024264         0.6603
  21   0.0000       0.024629         0.6702
  22   0.0000       0.054944         1.4951
  23   0.0000       0.105942         2.8828

                 SPIN DOWN ORBITALS
  NO   OCC          E(Eh)            E(eV)
   0   1.0000    -278.031646     -7565.6257
   1   1.0000     -33.035329      -898.9370
   2   1.0000     -28.595696      -778.1285
   3   1.0000     -28.589924      -777.9714
   4   1.0000     -28.589400      -777.9571
   5   1.0000     -24.803176      -674.9287
   6   1.0000      -3.813176      -103.7618
   7   1.0000      -2.468003       -67.1578
   8   1.0000      -2.463730       -67.0415
   9   1.0000      -2.461312       -66.9757
  10   1.0000      -1.193097       -32.4658
  11   1.0000      -0.483585       -13.1590
  12   1.0000      -0.458562       -12.4781
  13   1.0000      -0.444299       -12.0900
  14   1.0000      -0.354654        -9.6506
  15   1.0000      -0.335069        -9.1177
  16   1.0000      -0.310218        -8.4415
  17   0.0000      -0.027896        -0.7591
  18   0.0000       0.036106         0.9825
  19   0.0000       0.043029         1.1709
  20   0.0000       0.055309         1.5050
  21   0.0000       0.078878         2.1464

MULLIKEN ATOMIC CHARGES AND SPIN POPULATIONS
--------------------------------------------
   0 Co:    0.672236    1.950253
   1 F :   -0.672236    0.049747
Sum of atomic charges         :   -0.0000000

LOEWDIN ATOMIC CHARGES AND SPIN POPULATIONS
-------------------------------------------
   0 Co:    0.568238    1.981307
   1 F :   -0.568238    0.018693

  Mayer bond orders larger than 0.100000
B(  0-Co,  1-F ) :   0.6879

FINAL SINGLE POINT ENERGY     -1482.556414550826

DIPOLE MOMENT
-------------
                                X             Y             Z
Electronic contribution:      0.00000       0.00000       2.76528
Nuclear contribution   :      0.00000       0.00000      -0.74365
                        -----------------------------------------
Total Dipole Moment    :      0.00000       0.00000       2.02163
                        -----------------------------------------
Magnitude (a.u.)       :      2.02163
Magnitude (Debye)      :      5.13858

Rotational constants in cm-1:     0.000000     0.378809     0.378809
Rotational constants in MHz :     0.000000 11356.420741 11356.420741

                             ****ORCA TERMINATED NORMALLY****
TOTAL RUN TIME: 0 days 0 hours 0 minutes 12 seconds 113 msec
